 argument  1 = formic.nw
 


============================== echo of input deck ==============================
start

permanent_dir /gpfs/scratch/bsundahl
scratch_dir /gpfs/scratch/bsundahl

title "Formic Acid"

memory stack 400 mb heap 800 mb global 4000 mb

echo

geometry units atomic noautosym
  C             0.05471579           0.77999993           0.21060877
  O             0.13978043          -0.26019340          -2.05397762
  O             0.02175076          -0.34083649           2.12808539
  H             0.17552398          -2.03837678          -1.88909866
  H             0.01785515           2.82379219           0.06044559
end

basis spherical
 * library aug-cc-pvqz
end

driver
 maxiter 200
end

dft
 xc hfexch
 noio                         # turns off IO in charge fitting
 grid nodisk                  # turns off IO in grid
 direct                       # forces incore integrals
 maxiter 200
end

tddft
 nroots 10
end

task tddft energy
================================================================================


                                         
                                         
 
 
              Northwest Computational Chemistry Package (NWChem) 6.6
              ------------------------------------------------------
 
 
                    Environmental Molecular Sciences Laboratory
                       Pacific Northwest National Laboratory
                                Richland, WA 99352
 
                              Copyright (c) 1994-2015
                       Pacific Northwest National Laboratory
                            Battelle Memorial Institute
 
             NWChem is an open-source computational chemistry package
                        distributed under the terms of the
                      Educational Community License (ECL) 2.0
             A copy of the license is included with this distribution
                              in the LICENSE.TXT file
 
                                  ACKNOWLEDGMENT
                                  --------------

            This software and its documentation were developed at the
            EMSL at Pacific Northwest National Laboratory, a multiprogram
            national laboratory, operated for the U.S. Department of Energy
            by Battelle under Contract Number DE-AC05-76RL01830. Support
            for this work was provided by the Department of Energy Office
            of Biological and Environmental Research, Office of Basic
            Energy Sciences, and the Office of Advanced Scientific Computing.


           Job information
           ---------------

    hostname        = sn037
    program         = nwchem
    date            = Wed Aug  9 10:24:38 2017

    compiled        = Mon_Apr_10_13:22:52_2017
    source          = /gpfs/home/bsundahl/nwchem-6.6
    nwchem branch   = 6.6
    nwchem revision = 27746
    ga revision     = 10594
    input           = formic.nw
    prefix          = formic.
    data base       = /gpfs/scratch/bsundahl/formic.db
    status          = startup
    nproc           =       28
    time left       =     -1s



           Memory information
           ------------------

    heap     =  104857594 doubles =    800.0 Mbytes
    stack    =   52428799 doubles =    400.0 Mbytes
    global   =  524288000 doubles =   4000.0 Mbytes (distinct from heap & stack)
    total    =  681574393 doubles =   5200.0 Mbytes
    verify   = yes
    hardfail = no 


           Directory information
           ---------------------
 
  0 permanent = /gpfs/scratch/bsundahl
  0 scratch   = /gpfs/scratch/bsundahl
 
 
 
 
                                NWChem Input Module
                                -------------------
 
 
                                    Formic Acid
                                    -----------

          ------
          auto-z
          ------
 
 
                             Geometry "geometry" -> ""
                             -------------------------
 
 Output coordinates in a.u. (scale by  1.000000000 to convert to a.u.)
 
  No.       Tag          Charge          X              Y              Z
 ---- ---------------- ---------- -------------- -------------- --------------
    1 C                    6.0000    -0.02086435     0.75261760     0.20944787
    2 O                    8.0000     0.06420029    -0.28757573    -2.05513852
    3 O                    8.0000    -0.05382938    -0.36821882     2.12692449
    4 H                    1.0000     0.09994384    -2.06575911    -1.89025956
    5 H                    1.0000    -0.05772499     2.79640986     0.05928469
 
      Atomic Mass 
      ----------- 
 
      C                 12.000000
      O                 15.994910
      H                  1.007825
 

 Effective nuclear repulsion energy (a.u.)      71.5447618469

            Nuclear Dipole moment (a.u.) 
            ----------------------------
        X                 Y               Z
 ---------------- ---------------- ----------------
     0.0000000000     0.0000000000     0.0000000000
 


                                Z-matrix (autoz)
                                -------- 

 Units are Angstrom for bonds and degrees for angles
 
      Type          Name      I     J     K     L     M      Value
      ----------- --------  ----- ----- ----- ----- ----- ----------
    1 Stretch                  1     2                       1.31951
    2 Stretch                  1     3                       1.17545
    3 Stretch                  1     5                       1.08462
    4 Stretch                  2     4                       0.94520
    5 Bend                     1     2     4               109.39896
    6 Bend                     2     1     3               125.02900
    7 Bend                     2     1     5               110.49024
    8 Bend                     3     1     5               124.48075
    9 Torsion                  3     1     2     4          -0.19569
   10 Torsion                  4     2     1     5         179.84220
 
 
            XYZ format geometry
            -------------------
     5
 geometry
 C                    -0.01104094     0.39826811     0.11083505
 O                     0.03397333    -0.15217853    -1.08753255
 O                    -0.02848528    -0.19485302     1.12552005
 H                     0.05288801    -1.09315272    -1.00028236
 H                    -0.03054675     1.47979648     0.03137211
 
 ==============================================================================
                                internuclear distances
 ------------------------------------------------------------------------------
       center one      |      center two      | atomic units |       a.u.
 ------------------------------------------------------------------------------
    2 O                |   1 C                |     2.49351  |     2.49351
    3 O                |   1 C                |     2.22128  |     2.22128
    4 H                |   2 O                |     1.78617  |     1.78617
    5 H                |   1 C                |     2.04963  |     2.04963
 ------------------------------------------------------------------------------
                         number of included internuclear distances:          4
 ==============================================================================



 ==============================================================================
                                 internuclear angles
 ------------------------------------------------------------------------------
        center 1       |       center 2       |       center 3       |  degrees
 ------------------------------------------------------------------------------
    2 O                |   1 C                |   3 O                |   125.03
    2 O                |   1 C                |   5 H                |   110.49
    3 O                |   1 C                |   5 H                |   124.48
    1 C                |   2 O                |   4 H                |   109.40
 ------------------------------------------------------------------------------
                            number of included internuclear angles:          4
 ==============================================================================





 Summary of "ao basis" -> "" (spherical)
 ------------------------------------------------------------------------------
       Tag                 Description            Shells   Functions and Types
 ---------------- ------------------------------  ------  ---------------------
 *                        aug-cc-pvqz                 on all atoms 


  xc_inp: hfexch multiplicative factor not found.
 
                                 NWChem DFT Module
                                 -----------------
 
 
                                    Formic Acid
 
 
                      Basis "ao basis" -> "ao basis" (spherical)
                      -----
  C (Carbon)
  ----------
            Exponent  Coefficients 
       -------------- ---------------------------------------------------------
  1 S  3.39800000E+04  0.000091
  1 S  5.08900000E+03  0.000704
  1 S  1.15700000E+03  0.003693
  1 S  3.26600000E+02  0.015360
  1 S  1.06100000E+02  0.052929
  1 S  3.81100000E+01  0.147043
  1 S  1.47500000E+01  0.305631
  1 S  6.03500000E+00  0.399345
  1 S  2.53000000E+00  0.217051
 
  2 S  3.39800000E+04 -0.000019
  2 S  5.08900000E+03 -0.000151
  2 S  1.15700000E+03 -0.000785
  2 S  3.26600000E+02 -0.003324
  2 S  1.06100000E+02 -0.011512
  2 S  3.81100000E+01 -0.034160
  2 S  1.47500000E+01 -0.077173
  2 S  6.03500000E+00 -0.141493
  2 S  2.53000000E+00 -0.118019
 
  3 S  7.35500000E-01  1.000000
 
  4 S  2.90500000E-01  1.000000
 
  5 S  1.11100000E-01  1.000000
 
  6 S  4.14500000E-02  1.000000
 
  7 P  3.45100000E+01  0.005378
  7 P  7.91500000E+00  0.036132
  7 P  2.36800000E+00  0.142493
 
  8 P  8.13200000E-01  1.000000
 
  9 P  2.89000000E-01  1.000000
 
 10 P  1.00700000E-01  1.000000
 
 11 P  3.21800000E-02  1.000000
 
 12 D  1.84800000E+00  1.000000
 
 13 D  6.49000000E-01  1.000000
 
 14 D  2.28000000E-01  1.000000
 
 15 D  7.66000000E-02  1.000000
 
 16 F  1.41900000E+00  1.000000
 
 17 F  4.85000000E-01  1.000000
 
 18 F  1.87000000E-01  1.000000
 
 19 G  1.01100000E+00  1.000000
 
 20 G  4.24000000E-01  1.000000
 
  O (Oxygen)
  ----------
            Exponent  Coefficients 
       -------------- ---------------------------------------------------------
  1 S  6.14200000E+04  0.000090
  1 S  9.19900000E+03  0.000698
  1 S  2.09100000E+03  0.003664
  1 S  5.90900000E+02  0.015218
  1 S  1.92300000E+02  0.052423
  1 S  6.93200000E+01  0.145921
  1 S  2.69700000E+01  0.305258
  1 S  1.11000000E+01  0.398508
  1 S  4.68200000E+00  0.216980
 
  2 S  6.14200000E+04 -0.000020
  2 S  9.19900000E+03 -0.000159
  2 S  2.09100000E+03 -0.000829
  2 S  5.90900000E+02 -0.003508
  2 S  1.92300000E+02 -0.012156
  2 S  6.93200000E+01 -0.036261
  2 S  2.69700000E+01 -0.082992
  2 S  1.11000000E+01 -0.152090
  2 S  4.68200000E+00 -0.115331
 
  3 S  1.42800000E+00  1.000000
 
  4 S  5.54700000E-01  1.000000
 
  5 S  2.06700000E-01  1.000000
 
  6 S  6.95900000E-02  1.000000
 
  7 P  6.34200000E+01  0.006044
  7 P  1.46600000E+01  0.041799
  7 P  4.45900000E+00  0.161143
 
  8 P  1.53100000E+00  1.000000
 
  9 P  5.30200000E-01  1.000000
 
 10 P  1.75000000E-01  1.000000
 
 11 P  5.34800000E-02  1.000000
 
 12 D  3.77500000E+00  1.000000
 
 13 D  1.30000000E+00  1.000000
 
 14 D  4.44000000E-01  1.000000
 
 15 D  1.54000000E-01  1.000000
 
 16 F  2.66600000E+00  1.000000
 
 17 F  8.59000000E-01  1.000000
 
 18 F  3.24000000E-01  1.000000
 
 19 G  1.84600000E+00  1.000000
 
 20 G  7.14000000E-01  1.000000
 
  H (Hydrogen)
  ------------
            Exponent  Coefficients 
       -------------- ---------------------------------------------------------
  1 S  8.26400000E+01  0.002006
  1 S  1.24100000E+01  0.015343
  1 S  2.82400000E+00  0.075579
 
  2 S  7.97700000E-01  1.000000
 
  3 S  2.58100000E-01  1.000000
 
  4 S  8.98900000E-02  1.000000
 
  5 S  2.36300000E-02  1.000000
 
  6 P  2.29200000E+00  1.000000
 
  7 P  8.38000000E-01  1.000000
 
  8 P  2.92000000E-01  1.000000
 
  9 P  8.48000000E-02  1.000000
 
 10 D  2.06200000E+00  1.000000
 
 11 D  6.62000000E-01  1.000000
 
 12 D  1.90000000E-01  1.000000
 
 13 F  1.39700000E+00  1.000000
 
 14 F  3.60000000E-01  1.000000
 


 Summary of "ao basis" -> "ao basis" (spherical)
 ------------------------------------------------------------------------------
       Tag                 Description            Shells   Functions and Types
 ---------------- ------------------------------  ------  ---------------------
 C                        aug-cc-pvqz               20       80   6s5p4d3f2g
 O                        aug-cc-pvqz               20       80   6s5p4d3f2g
 H                        aug-cc-pvqz               14       46   5s4p3d2f




 Summary of "ao basis" -> "ao basis" (spherical)
 ------------------------------------------------------------------------------
       Tag                 Description            Shells   Functions and Types
 ---------------- ------------------------------  ------  ---------------------
 C                        aug-cc-pvqz               20       80   6s5p4d3f2g
 O                        aug-cc-pvqz               20       80   6s5p4d3f2g
 H                        aug-cc-pvqz               14       46   5s4p3d2f


  Caching 1-el integrals 
 
            General Information
            -------------------
          SCF calculation type: DFT
          Wavefunction type:  closed shell.
          No. of atoms     :     5
          No. of electrons :    24
           Alpha electrons :    12
            Beta electrons :    12
          Charge           :     0
          Spin multiplicity:     1
          Use of symmetry is: off; symmetry adaption is: off
          Maximum number of iterations: 200
          This is a Direct SCF calculation.
          AO basis - number of functions:   332
                     number of shells:    88
          Convergence on energy requested: 1.00D-06
          Convergence on density requested: 1.00D-05
          Convergence on gradient requested: 5.00D-04
 
              XC Information
              --------------
                     Hartree-Fock (Exact) Exchange  1.000          
 
          Convergence Information
          -----------------------
          Convergence aids based upon iterative change in 
          total energy or number of iterations. 
          Levelshifting, if invoked, occurs when the 
          HOMO/LUMO gap drops below (HL_TOL): 1.00D-02
          DIIS, if invoked, will attempt to extrapolate 
          using up to (NFOCK): 10 stored Fock matrices.

                    Damping( 0%)  Levelshifting(0.5)       DIIS
                  --------------- ------------------- ---------------
          dE  on:    start            ASAP                start   
          dE off:    2 iters        200 iters           200 iters 

 
      Screening Tolerance Information
      -------------------------------
          Density screening/tol_rho: 1.00D-10
          AO Gaussian exp screening on grid/accAOfunc:  14
          CD Gaussian exp screening on grid/accCDfunc:  20
          XC Gaussian exp screening on grid/accXCfunc:  20
          Schwarz screening/accCoul: 1.00D-08

 
      Superposition of Atomic Density Guess
      -------------------------------------
 
 Sum of atomic energies:        -188.24346539
 
      Non-variational initial energy
      ------------------------------

 Total energy =    -189.552062
 1-e energy   =    -398.966338
 2-e energy   =     137.869514
 HOMO         =      -0.408033
 LUMO         =       0.022454
 
   Time after variat. SCF:      0.8
   Time prior to 1st pass:      0.8

           Memory utilization after 1st SCF pass: 
           Heap Space remaining (MW):      104.85           104850610
          Stack Space remaining (MW):       52.43            52427060

   convergence    iter        energy       DeltaE   RMS-Dens  Diis-err    time
 ---------------- ----- ----------------- --------- --------- ---------  ------
 d= 0,ls=0.0,diis     1   -188.7688688966 -2.60D+02  1.33D-03  8.68D-01     6.4
 d= 0,ls=0.0,diis     2   -188.8239178378 -5.50D-02  5.75D-04  4.30D-01    12.0
 d= 0,ls=0.0,diis     3   -188.8581785531 -3.43D-02  1.29D-04  6.55D-03    17.6
 d= 0,ls=0.0,diis     4   -188.8591995286 -1.02D-03  8.08D-05  1.51D-03    23.5
 d= 0,ls=0.0,diis     5   -188.8594093759 -2.10D-04  3.47D-05  1.28D-04    29.4
  Resetting Diis
 d= 0,ls=0.0,diis     6   -188.8594510111 -4.16D-05  1.39D-05  2.78D-05    35.3
 d= 0,ls=0.0,diis     7   -188.8594613942 -1.04D-05  4.14D-06  2.94D-06    41.2
 d= 0,ls=0.0,diis     8   -188.8594620671 -6.73D-07  1.38D-06  7.50D-07    47.1


         Total DFT energy =     -188.859462067135
      One electron energy =     -400.723651648265
           Coulomb energy =      162.754905688484
    Exchange-Corr. energy =      -22.435477954285
 Nuclear repulsion energy =       71.544761846931

 Numeric. integr. density =        0.000000000000

     Total iterative time =     46.2s


 
                       DFT Final Molecular Orbital Analysis
                       ------------------------------------
 
 Vector    2  Occ=2.000000D+00  E=-2.055943D+01
              MO Center= -2.8D-02, -1.9D-01,  1.1D+00, r^2= 1.5D-02
   Bfn.  Coefficient  Atom+Function         Bfn.  Coefficient  Atom+Function  
  ----- ------------  ---------------      ----- ------------  ---------------
   161      0.992286  3 O  s          
 
 Vector    3  Occ=2.000000D+00  E=-1.138598D+01
              MO Center= -1.1D-02,  4.0D-01,  1.1D-01, r^2= 2.7D-02
   Bfn.  Coefficient  Atom+Function         Bfn.  Coefficient  Atom+Function  
  ----- ------------  ---------------      ----- ------------  ---------------
     1      0.993719  1 C  s          
 
 Vector    4  Occ=2.000000D+00  E=-1.493344D+00
              MO Center=  1.0D-02, -1.2D-01, -2.8D-01, r^2= 1.1D+00
   Bfn.  Coefficient  Atom+Function         Bfn.  Coefficient  Atom+Function  
  ----- ------------  ---------------      ----- ------------  ---------------
    84      0.360842  2 O  s                 82      0.236279  2 O  s          
   164      0.226657  3 O  s                 83      0.182475  2 O  s          
     2      0.159028  1 C  s                162      0.158538  3 O  s          
    85      0.153968  2 O  s          
 
 Vector    5  Occ=2.000000D+00  E=-1.389665D+00
              MO Center= -4.8D-03, -9.1D-02,  2.3D-01, r^2= 1.3D+00
   Bfn.  Coefficient  Atom+Function         Bfn.  Coefficient  Atom+Function  
  ----- ------------  ---------------      ----- ------------  ---------------
   164      0.354940  3 O  s                 84     -0.298484  2 O  s          
   162      0.245601  3 O  s                 82     -0.194944  2 O  s          
   163      0.192879  3 O  s                165      0.165707  3 O  s          
    83     -0.152458  2 O  s          
 
 Vector    6  Occ=2.000000D+00  E=-9.068928D-01
              MO Center=  1.1D-02,  1.5D-01, -4.9D-01, r^2= 1.5D+00
   Bfn.  Coefficient  Atom+Function         Bfn.  Coefficient  Atom+Function  
  ----- ------------  ---------------      ----- ------------  ---------------
     4      0.274729  1 C  s                 94      0.199178  2 O  py         
     2      0.188695  1 C  s                 91      0.163628  2 O  py         
 
 Vector    7  Occ=2.000000D+00  E=-7.377821D-01
              MO Center= -1.0D-03,  2.7D-01, -1.5D-01, r^2= 1.6D+00
   Bfn.  Coefficient  Atom+Function         Bfn.  Coefficient  Atom+Function  
  ----- ------------  ---------------      ----- ------------  ---------------
    14      0.224006  1 C  py                95     -0.213431  2 O  pz         
    92     -0.174016  2 O  pz                11      0.172690  1 C  py         
 
 Vector    8  Occ=2.000000D+00  E=-7.172025D-01
              MO Center= -8.3D-03, -1.9D-01,  4.2D-01, r^2= 1.9D+00
   Bfn.  Coefficient  Atom+Function         Bfn.  Coefficient  Atom+Function  
  ----- ------------  ---------------      ----- ------------  ---------------
   164      0.276467  3 O  s                165      0.248045  3 O  s          
   175      0.204211  3 O  pz                94      0.180939  2 O  py         
   172      0.179449  3 O  pz                 4     -0.170491  1 C  s          
    85      0.153704  2 O  s          
 
 Vector    9  Occ=2.000000D+00  E=-6.483568D-01
              MO Center=  1.0D-02, -4.2D-02, -3.3D-01, r^2= 1.4D+00
   Bfn.  Coefficient  Atom+Function         Bfn.  Coefficient  Atom+Function  
  ----- ------------  ---------------      ----- ------------  ---------------
    93      0.303871  2 O  px                90      0.231816  2 O  px         
   173      0.178653  3 O  px                96      0.158128  2 O  px         
    13      0.155490  1 C  px         
 
 Vector   10  Occ=2.000000D+00  E=-6.065636D-01
              MO Center=  6.3D-03,  4.1D-02, -2.6D-01, r^2= 2.0D+00
   Bfn.  Coefficient  Atom+Function         Bfn.  Coefficient  Atom+Function  
  ----- ------------  ---------------      ----- ------------  ---------------
    85      0.235347  2 O  s                 95     -0.195970  2 O  pz         
    94      0.191201  2 O  py               175     -0.178314  3 O  pz         
    84      0.166635  2 O  s                  5     -0.161927  1 C  s          
    92     -0.158948  2 O  pz               243     -0.158570  4 H  s          
   172     -0.156003  3 O  pz         
 
 Vector   11  Occ=2.000000D+00  E=-5.013735D-01
              MO Center= -3.3D-03, -1.2D-01,  2.0D-01, r^2= 1.7D+00
   Bfn.  Coefficient  Atom+Function         Bfn.  Coefficient  Atom+Function  
  ----- ------------  ---------------      ----- ------------  ---------------
   173     -0.302871  3 O  px                93      0.276557  2 O  px         
   170     -0.230051  3 O  px                90      0.209581  2 O  px         
   176     -0.188156  3 O  px                96      0.170574  2 O  px         
 
 Vector   12  Occ=2.000000D+00  E=-4.740045D-01
              MO Center= -2.0D-02,  2.1D-02,  6.9D-01, r^2= 1.5D+00
   Bfn.  Coefficient  Atom+Function         Bfn.  Coefficient  Atom+Function  
  ----- ------------  ---------------      ----- ------------  ---------------
   174      0.332464  3 O  py               171      0.254981  3 O  py         
   177      0.218262  3 O  py               175      0.180787  3 O  pz         
    95      0.154658  2 O  pz         
 
 Vector   13  Occ=0.000000D+00  E= 2.611447D-02
              MO Center=  4.6D-02, -3.9D-01, -1.1D+00, r^2= 2.2D+01
   Bfn.  Coefficient  Atom+Function         Bfn.  Coefficient  Atom+Function  
  ----- ------------  ---------------      ----- ------------  ---------------
     6      6.947011  1 C  s                  5      4.115728  1 C  s          
   166     -3.125655  3 O  s                 86     -2.398765  2 O  s          
   245     -2.133611  4 H  s                291     -1.931809  5 H  s          
   100     -1.139619  2 O  py               165     -0.979100  3 O  s          
   290     -0.968596  5 H  s                101     -0.771914  2 O  pz         
 
 Vector   14  Occ=0.000000D+00  E= 3.455313D-02
              MO Center=  6.3D-03,  8.7D-01, -7.7D-01, r^2= 2.5D+01
   Bfn.  Coefficient  Atom+Function         Bfn.  Coefficient  Atom+Function  
  ----- ------------  ---------------      ----- ------------  ---------------
   290      5.132967  5 H  s                291      4.231480  5 H  s          
     5     -3.426928  1 C  s                245     -3.097346  4 H  s          
    17     -2.429892  1 C  py                 6     -2.261936  1 C  s          
    20     -1.747909  1 C  py               302     -0.807165  5 H  py         
   244     -0.739288  4 H  s                100     -0.615642  2 O  py         
 
 Vector   15  Occ=0.000000D+00  E= 6.437185D-02
              MO Center= -2.0D-02,  8.9D-01,  6.8D-02, r^2= 1.6D+01
   Bfn.  Coefficient  Atom+Function         Bfn.  Coefficient  Atom+Function  
  ----- ------------  ---------------      ----- ------------  ---------------
    19      2.302029  1 C  px               179     -1.037444  3 O  px         
    99     -0.880567  2 O  px                16      0.494147  1 C  px         
   301     -0.459205  5 H  px               255      0.294567  4 H  px         
   298     -0.173905  5 H  px               117      0.167814  2 O  d -2       
    13      0.163451  1 C  px         
 
 Vector   16  Occ=0.000000D+00  E= 6.982297D-02
              MO Center= -2.7D-02,  4.0D-01,  6.7D-01, r^2= 1.9D+01
   Bfn.  Coefficient  Atom+Function         Bfn.  Coefficient  Atom+Function  
  ----- ------------  ---------------      ----- ------------  ---------------
    86      5.145448  2 O  s                166     -4.545073  3 O  s          
    18      3.468946  1 C  pz                21      2.570323  1 C  pz         
   165     -1.685222  3 O  s                244     -1.343167  4 H  s          
    85      1.334766  2 O  s                 17     -1.113033  1 C  py         
    15      0.896529  1 C  pz                 6     -0.741392  1 C  s          
 
 Vector   17  Occ=0.000000D+00  E= 9.620563D-02
              MO Center=  2.2D-02, -5.0D-01, -4.2D-01, r^2= 1.9D+01
   Bfn.  Coefficient  Atom+Function         Bfn.  Coefficient  Atom+Function  
  ----- ------------  ---------------      ----- ------------  ---------------
    86     11.346691  2 O  s                  6     -8.814616  1 C  s          
     5     -5.865639  1 C  s                166      5.818157  3 O  s          
    20      5.208514  1 C  py               244     -4.788647  4 H  s          
   245      4.369117  4 H  s                 85      3.180194  2 O  s          
   291     -2.864963  5 H  s                 17      2.169912  1 C  py         
 
 Vector   18  Occ=0.000000D+00  E= 1.180094D-01
              MO Center= -2.2D-02,  1.4D+00, -1.6D-01, r^2= 1.9D+01
   Bfn.  Coefficient  Atom+Function         Bfn.  Coefficient  Atom+Function  
  ----- ------------  ---------------      ----- ------------  ---------------
     6     17.090261  1 C  s                166     -9.966108  3 O  s          
     5      8.304535  1 C  s                 86     -7.099411  2 O  s          
   291     -5.332131  5 H  s                100     -4.033927  2 O  py         
    20      3.018103  1 C  py               165     -2.619946  3 O  s          
   101     -2.271296  2 O  pz                38     -2.197198  1 C  d -1       
 
 Vector   19  Occ=0.000000D+00  E= 1.302458D-01
              MO Center=  3.8D-02, -8.5D-01, -6.5D-01, r^2= 1.6D+01
   Bfn.  Coefficient  Atom+Function         Bfn.  Coefficient  Atom+Function  
  ----- ------------  ---------------      ----- ------------  ---------------
   244      6.046397  4 H  s                 86     -4.157461  2 O  s          
   290     -3.585354  5 H  s                100      3.263339  2 O  py         
     5      2.294511  1 C  s                 97      2.058175  2 O  py         
   245      2.060551  4 H  s                256      1.736479  4 H  py         
    85     -1.716541  2 O  s                243      1.723878  4 H  s          
 
 Vector   20  Occ=0.000000D+00  E= 1.340211D-01
              MO Center=  2.2D-02,  3.6D-01, -1.1D+00, r^2= 1.7D+01
   Bfn.  Coefficient  Atom+Function         Bfn.  Coefficient  Atom+Function  
  ----- ------------  ---------------      ----- ------------  ---------------
   290     16.230325  5 H  s                  5    -10.252501  1 C  s          
    17     -8.120227  1 C  py               101     -3.805528  2 O  pz         
     6     -3.496310  1 C  s                302     -3.375306  5 H  py         
   291      2.998267  5 H  s                100     -2.529276  2 O  py         
    86     -2.367075  2 O  s                245     -2.328972  4 H  s          
 
 Vector   21  Occ=0.000000D+00  E= 1.395258D-01
              MO Center= -2.1D-02,  2.7D-02,  7.1D-01, r^2= 8.5D+00
   Bfn.  Coefficient  Atom+Function         Bfn.  Coefficient  Atom+Function  
  ----- ------------  ---------------      ----- ------------  ---------------
   179      1.960732  3 O  px               301     -1.666521  5 H  px         
    99     -1.641854  2 O  px               255      1.272391  4 H  px         
   176      1.076033  3 O  px                40      0.873073  1 C  d  1       
    37      0.803654  1 C  d -2              96     -0.710605  2 O  px         
    32      0.428993  1 C  d -2              35      0.422492  1 C  d  1       
 
 Vector   22  Occ=0.000000D+00  E= 1.439563D-01
              MO Center=  3.7D-02, -2.8D-01, -1.2D+00, r^2= 1.1D+01
   Bfn.  Coefficient  Atom+Function         Bfn.  Coefficient  Atom+Function  
  ----- ------------  ---------------      ----- ------------  ---------------
    99      3.324780  2 O  px                40     -1.358714  1 C  d  1       
    16     -1.233339  1 C  px                96      1.129775  2 O  px         
   179     -1.110540  3 O  px                19     -0.815309  1 C  px         
   120     -0.775262  2 O  d  1              35     -0.647566  1 C  d  1       
    32      0.403608  1 C  d -2             255     -0.404056  4 H  px         
 
 Vector   23  Occ=0.000000D+00  E= 1.524611D-01
              MO Center=  6.3D-04, -6.6D-01,  5.5D-01, r^2= 1.4D+01
   Bfn.  Coefficient  Atom+Function         Bfn.  Coefficient  Atom+Function  
  ----- ------------  ---------------      ----- ------------  ---------------
   244      6.918918  4 H  s                290     -4.494996  5 H  s          
    86     -4.335930  2 O  s                 38     -3.863189  1 C  d -1       
   180      3.810966  3 O  py                17      3.678689  1 C  py         
   256      3.167666  4 H  py               303      3.038055  5 H  pz         
    20     -2.431903  1 C  py                 5     -2.278104  1 C  s          
 
 Vector   24  Occ=0.000000D+00  E= 1.915270D-01
              MO Center= -2.0D-02,  3.1D-01,  4.9D-01, r^2= 1.3D+01
   Bfn.  Coefficient  Atom+Function         Bfn.  Coefficient  Atom+Function  
  ----- ------------  ---------------      ----- ------------  ---------------
   179      3.590537  3 O  px                19     -2.852549  1 C  px         
    16     -2.453697  1 C  px                99      1.844700  2 O  px         
    37      1.179785  1 C  d -2             176      1.054397  3 O  px         
   200      0.811933  3 O  d  1              13     -0.594952  1 C  px         
    40      0.568427  1 C  d  1              32      0.557569  1 C  d -2       
 
 Vector   25  Occ=0.000000D+00  E= 1.931795D-01
              MO Center= -1.5D-02, -3.7D-01,  8.0D-01, r^2= 1.5D+01
   Bfn.  Coefficient  Atom+Function         Bfn.  Coefficient  Atom+Function  
  ----- ------------  ---------------      ----- ------------  ---------------
    86     18.976320  2 O  s                290    -12.611251  5 H  s          
   244     -8.291054  4 H  s                101      5.615368  2 O  pz         
     6     -4.978127  1 C  s                  5      4.668184  1 C  s          
   181      4.309616  3 O  pz                39     -3.910870  1 C  d  0       
   180      3.895684  3 O  py                17      3.748892  1 C  py         
 
 Vector   26  Occ=0.000000D+00  E= 2.023799D-01
              MO Center=  2.4D-03, -1.8D-02, -5.6D-02, r^2= 1.6D+01
   Bfn.  Coefficient  Atom+Function         Bfn.  Coefficient  Atom+Function  
  ----- ------------  ---------------      ----- ------------  ---------------
   290     18.550832  5 H  s                166    -14.472153  3 O  s          
     6      8.379059  1 C  s                 86     -7.975677  2 O  s          
   100     -7.164308  2 O  py                 5     -6.961805  1 C  s          
   244      6.276084  4 H  s                 17     -6.171491  1 C  py         
   181      4.322145  3 O  pz               180     -4.177723  3 O  py         
 
 Vector   27  Occ=0.000000D+00  E= 2.301241D-01
              MO Center= -8.4D-03,  4.1D-01, -1.9D-01, r^2= 1.3D+01
   Bfn.  Coefficient  Atom+Function         Bfn.  Coefficient  Atom+Function  
  ----- ------------  ---------------      ----- ------------  ---------------
     5     14.513008  1 C  s                166     -7.527041  3 O  s          
   290     -4.979855  5 H  s                 20     -4.788922  1 C  py         
   302      4.525959  5 H  py               289     -3.926182  5 H  s          
   165     -3.851250  3 O  s                  6      3.549726  1 C  s          
    86     -3.047456  2 O  s                244      2.704016  4 H  s          
 
 Vector   28  Occ=0.000000D+00  E= 2.359172D-01
              MO Center= -3.4D-02,  1.2D+00,  3.6D-01, r^2= 1.2D+01
   Bfn.  Coefficient  Atom+Function         Bfn.  Coefficient  Atom+Function  
  ----- ------------  ---------------      ----- ------------  ---------------
   290     11.985637  5 H  s                  5     -9.726552  1 C  s          
   166     -9.055969  3 O  s                 18      7.835340  1 C  pz         
    17     -4.201758  1 C  py                20      3.563899  1 C  py         
   302     -3.559524  5 H  py               244      3.279046  4 H  s          
   289      3.102031  5 H  s                 21      2.849916  1 C  pz         
 
 Vector   29  Occ=0.000000D+00  E= 2.390275D-01
              MO Center=  3.1D-02, -3.6D-01, -6.1D-01, r^2= 9.3D+00
   Bfn.  Coefficient  Atom+Function         Bfn.  Coefficient  Atom+Function  
  ----- ------------  ---------------      ----- ------------  ---------------
   255      3.511299  4 H  px                99     -2.754782  2 O  px         
    16      2.226147  1 C  px                96     -2.177653  2 O  px         
   179     -1.856480  3 O  px                19      1.713693  1 C  px         
   252      1.303841  4 H  px               117      1.127525  2 O  d -2       
   176     -1.038729  3 O  px               301     -1.014099  5 H  px         
 
 Vector   30  Occ=0.000000D+00  E= 2.576516D-01
              MO Center= -2.3D-02,  1.2D+00, -3.5D-02, r^2= 9.6D+00
   Bfn.  Coefficient  Atom+Function         Bfn.  Coefficient  Atom+Function  
  ----- ------------  ---------------      ----- ------------  ---------------
   301      4.901818  5 H  px                16     -4.086606  1 C  px         
   255      1.682956  4 H  px                13     -1.324020  1 C  px         
    37     -1.329583  1 C  d -2             298      1.268121  5 H  px         
   314     -0.997399  5 H  d -2              32     -0.958384  1 C  d -2       
    40     -0.687256  1 C  d  1              99     -0.690027  2 O  px         
 
 Vector   31  Occ=0.000000D+00  E= 2.708340D-01
              MO Center=  3.4D-02, -2.7D-01, -9.7D-01, r^2= 1.2D+01
   Bfn.  Coefficient  Atom+Function         Bfn.  Coefficient  Atom+Function  
  ----- ------------  ---------------      ----- ------------  ---------------
    86     26.937087  2 O  s                  6    -12.377209  1 C  s          
   290     -9.292782  5 H  s                244     -7.908073  4 H  s          
    85      7.214642  2 O  s                 17      6.612929  1 C  py         
    18      5.294515  1 C  pz               302      3.732163  5 H  py         
   243     -3.672934  4 H  s                257      3.323995  4 H  pz         
 
 Vector   32  Occ=0.000000D+00  E= 2.846122D-01
              MO Center= -2.6D-02,  6.9D-01,  4.4D-01, r^2= 1.2D+01
   Bfn.  Coefficient  Atom+Function         Bfn.  Coefficient  Atom+Function  
  ----- ------------  ---------------      ----- ------------  ---------------
   166     27.108264  3 O  s                290    -16.208160  5 H  s          
     6    -15.136401  1 C  s                 17      9.734818  1 C  py         
   303     -6.628520  5 H  pz               165      5.763757  3 O  s          
   302      5.577946  5 H  py                38      5.106833  1 C  d -1       
    18     -4.900972  1 C  pz               181     -3.794397  3 O  pz         
 
 Vector   33  Occ=0.000000D+00  E= 2.999889D-01
              MO Center= -1.3D-02,  2.1D-01,  1.8D-01, r^2= 9.6D+00
   Bfn.  Coefficient  Atom+Function         Bfn.  Coefficient  Atom+Function  
  ----- ------------  ---------------      ----- ------------  ---------------
   301      4.440525  5 H  px                37     -3.669758  1 C  d -2       
    40      1.985585  1 C  d  1              96     -1.964719  2 O  px         
    99     -1.680035  2 O  px               255     -1.398100  4 H  px         
    35      0.926565  1 C  d  1              16     -0.897240  1 C  px         
   120      0.750743  2 O  d  1              32     -0.666400  1 C  d -2       
 
 Vector   34  Occ=0.000000D+00  E= 3.028078D-01
              MO Center= -4.2D-03,  3.9D-01, -1.4D-01, r^2= 1.4D+01
   Bfn.  Coefficient  Atom+Function         Bfn.  Coefficient  Atom+Function  
  ----- ------------  ---------------      ----- ------------  ---------------
     6     17.603202  1 C  s                  5     17.186712  1 C  s          
    86    -14.688729  2 O  s                290    -13.624038  5 H  s          
    17      8.502105  1 C  py               244      8.381909  4 H  s          
   166     -7.239188  3 O  s                100     -5.504136  2 O  py         
   256      4.677470  4 H  py               257      3.718541  4 H  pz         
 
 Vector   35  Occ=0.000000D+00  E= 3.320614D-01
              MO Center=  2.1D-02,  7.3D-02, -7.1D-01, r^2= 1.3D+01
   Bfn.  Coefficient  Atom+Function         Bfn.  Coefficient  Atom+Function  
  ----- ------------  ---------------      ----- ------------  ---------------
   290     33.601706  5 H  s                  5    -20.856956  1 C  s          
    86    -14.262143  2 O  s                244     13.973915  4 H  s          
   166    -12.941530  3 O  s                 17    -11.789215  1 C  py         
   257      7.159962  4 H  pz                38     -6.153008  1 C  d -1       
    41      6.043705  1 C  d  2             101     -5.483298  2 O  pz         
 
 Vector   36  Occ=0.000000D+00  E= 3.405457D-01
              MO Center=  1.1D-02,  1.5D-01, -4.2D-01, r^2= 1.3D+01
   Bfn.  Coefficient  Atom+Function         Bfn.  Coefficient  Atom+Function  
  ----- ------------  ---------------      ----- ------------  ---------------
   290     24.654980  5 H  s                  5    -20.728642  1 C  s          
   244    -17.711974  4 H  s                 17    -11.523042  1 C  py         
   302     -7.285421  5 H  py                86      7.053995  2 O  s          
   289      5.114795  5 H  s                100     -4.711829  2 O  py         
   303     -4.713511  5 H  pz                38      4.023391  1 C  d -1       
 
 Vector   37  Occ=0.000000D+00  E= 3.602133D-01
              MO Center= -1.7D-02, -1.3D-01,  5.4D-01, r^2= 9.4D+00
   Bfn.  Coefficient  Atom+Function         Bfn.  Coefficient  Atom+Function  
  ----- ------------  ---------------      ----- ------------  ---------------
   176      4.608916  3 O  px                16     -3.484175  1 C  px         
   179      3.321289  3 O  px                37      2.759400  1 C  d -2       
    40      2.710227  1 C  d  1             255      2.300115  4 H  px         
   301     -2.134349  5 H  px                99     -1.933317  2 O  px         
   200      1.313612  3 O  d  1              35      1.272005  1 C  d  1       
 
 Vector   38  Occ=0.000000D+00  E= 3.611799D-01
              MO Center=  2.0D-02,  1.2D-02, -5.8D-01, r^2= 1.1D+01
   Bfn.  Coefficient  Atom+Function         Bfn.  Coefficient  Atom+Function  
  ----- ------------  ---------------      ----- ------------  ---------------
     5     25.658253  1 C  s                290    -25.427342  5 H  s          
    86     11.834195  2 O  s                244    -10.399196  4 H  s          
    17      9.680983  1 C  py               302      8.517805  5 H  py         
   256     -5.316852  4 H  py                85      4.157176  2 O  s          
    97     -3.807631  2 O  py                 4      3.201268  1 C  s          
 
 Vector   39  Occ=0.000000D+00  E= 3.956148D-01
              MO Center= -2.6D-02,  4.5D-01,  5.4D-01, r^2= 1.1D+01
   Bfn.  Coefficient  Atom+Function         Bfn.  Coefficient  Atom+Function  
  ----- ------------  ---------------      ----- ------------  ---------------
   303    -11.540357  5 H  pz                38     11.016030  1 C  d -1       
   244     -8.928473  4 H  s                 18      7.501227  1 C  pz         
    17     -4.720882  1 C  py                 5      4.357241  1 C  s          
     4      3.593616  1 C  s                 97      3.295510  2 O  py         
   290      3.294315  5 H  s                177     -3.238904  3 O  py         
 
 Vector   40  Occ=0.000000D+00  E= 4.118309D-01
              MO Center=  6.8D-03,  4.9D-01, -5.5D-01, r^2= 8.8D+00
   Bfn.  Coefficient  Atom+Function         Bfn.  Coefficient  Atom+Function  
  ----- ------------  ---------------      ----- ------------  ---------------
    16      9.843212  1 C  px               301     -4.795048  5 H  px         
    96     -4.116754  2 O  px                99     -3.394919  2 O  px         
    37      2.424763  1 C  d -2             176     -2.400080  3 O  px         
    13      1.913426  1 C  px               255      1.786001  4 H  px         
   120      1.748463  2 O  d  1              40      1.693135  1 C  d  1       
 
 Vector   41  Occ=0.000000D+00  E= 4.310064D-01
              MO Center= -1.1D-02, -2.6D-01,  5.9D-01, r^2= 1.0D+01
   Bfn.  Coefficient  Atom+Function         Bfn.  Coefficient  Atom+Function  
  ----- ------------  ---------------      ----- ------------  ---------------
   290    -27.113410  5 H  s                 86     25.737822  2 O  s          
   244    -15.540780  4 H  s                 39    -10.519173  1 C  d  0       
   166     10.131952  3 O  s                 17      8.378911  1 C  py         
    41     -8.155209  1 C  d  2               5      7.991184  1 C  s          
     6     -7.190864  1 C  s                100      6.024290  2 O  py         
 
 Vector   42  Occ=0.000000D+00  E= 4.706231D-01
              MO Center=  1.7D-02,  3.6D-04, -5.5D-01, r^2= 9.6D+00
   Bfn.  Coefficient  Atom+Function         Bfn.  Coefficient  Atom+Function  
  ----- ------------  ---------------      ----- ------------  ---------------
    17     23.179676  1 C  py               290    -17.670181  5 H  s          
   244     17.162824  4 H  s                 18      8.713264  1 C  pz         
    85      6.641632  2 O  s                  5     -5.533679  1 C  s          
   177     -4.543832  3 O  py                86      4.300573  2 O  s          
    98      4.201433  2 O  pz               257      4.017847  4 H  pz         
 
 Vector   43  Occ=0.000000D+00  E= 4.913801D-01
              MO Center= -4.9D-03,  4.8D-01, -1.7D-01, r^2= 7.6D+00
   Bfn.  Coefficient  Atom+Function         Bfn.  Coefficient  Atom+Function  
  ----- ------------  ---------------      ----- ------------  ---------------
   166     20.816822  3 O  s                290    -17.950600  5 H  s          
    18    -13.311578  1 C  pz               244     -9.446227  4 H  s          
    17      9.101768  1 C  py               165      7.259127  3 O  s          
    38      6.182996  1 C  d -1              39     -5.218780  1 C  d  0       
     6     -4.966313  1 C  s                100      4.291088  2 O  py         
 
 Vector   44  Occ=0.000000D+00  E= 5.263819D-01
              MO Center=  5.0D-03, -3.2D-02, -2.5D-01, r^2= 6.9D+00
   Bfn.  Coefficient  Atom+Function         Bfn.  Coefficient  Atom+Function  
  ----- ------------  ---------------      ----- ------------  ---------------
   166     27.478622  3 O  s                290    -22.165849  5 H  s          
    86     20.514445  2 O  s                244    -17.824785  4 H  s          
     6    -14.752760  1 C  s                 17     11.799990  1 C  py         
    38      9.425528  1 C  d -1             165      8.271682  3 O  s          
   303     -7.259061  5 H  pz                85      6.696064  2 O  s          
 

 center of mass
 --------------
 x =  -0.00091166 y =  -0.01568499 z =   0.03947970

 moments of inertia (a.u.)
 ------------------
         166.432386873485           0.538123869368           4.186281093437
           0.538123869368         144.104090601893          -2.948883370117
           4.186281093437          -2.948883370117          22.590063354173
 
     Multipole analysis of the density
     ---------------------------------
 
     L   x y z        total         alpha         beta         nuclear
     -   - - -        -----         -----         ----         -------
     0   0 0 0     -0.000000    -12.000000    -12.000000     24.000000
 
     1   1 0 0      0.018936      0.009468      0.009468      0.000000
     1   0 1 0      0.113972      0.056986      0.056986      0.000000
     1   0 0 1     -0.670732     -0.335366     -0.335366      0.000000
 
     2   2 0 0    -12.528725     -6.300406     -6.300406      0.072087
     2   1 1 0     -0.112697      0.169267      0.169267     -0.451232
     2   1 0 1      0.063898      1.126956      1.126956     -2.190014
     2   0 2 0     -9.766459    -13.499303    -13.499303     17.232148
     2   0 1 1      1.827442     -0.825821     -0.825821      3.479085
     2   0 0 2    -16.166314    -44.992668    -44.992668     73.819023
 
                                NWChem TDDFT Module
                                -------------------
 
 
                                    Formic Acid
 
 
            General Information
            -------------------
           No. of orbitals :   664
            Alpha orbitals :   332
             Beta orbitals :   332
        Alpha frozen cores :     0
         Beta frozen cores :     0
     Alpha frozen virtuals :     0
      Beta frozen virtuals :     0
         Spin multiplicity :     1
    Number of AO functions :   332
        Use of symmetry is : off
      Symmetry adaption is : off
         Schwarz screening : 0.10D-07
 
              XC Information
              --------------
              Hartree-Fock (Exact) Exchange   1.00          
 
             TDDFT Information
             -----------------
          Calculation type : TDHF              
         Wavefunction type : Restricted singlets & triplets
          No. of electrons :    24
           Alpha electrons :    12
            Beta electrons :    12
              No. of roots :    10
          Max subspacesize :  6000
            Max iterations :   100
               Target root :     1
           Target symmetry : none
      Symmetry restriction : off
                 Algorithm : Optimal
        Davidson threshold : 0.10D-03
 
            Memory Information
            ------------------
          Available GA space size is       14679953776 doubles
          Available MA space size is         157278388 doubles
          Length of a trial vector is         3840
          Algorithm : Incore multiple tensor contraction
          Estimated peak GA usage is         101495616 doubles
          Estimated peak MA usage is             71000 doubles
3: WARNING:armci_set_mem_offset: offset changed 0 to 8388608
 
   10 smallest eigenvalue differences (eV) 
--------------------------------------------------------
  No. Spin  Occ  Vir  Irrep   E(Occ)    E(Vir)   E(Diff)
--------------------------------------------------------
    1    1   12   13 a        -0.474     0.026    13.609
    2    1   12   14 a        -0.474     0.035    13.839
    3    1   11   13 a        -0.501     0.026    14.354
    4    1   11   14 a        -0.501     0.035    14.583
    5    1   12   15 a        -0.474     0.064    14.650
    6    1   12   16 a        -0.474     0.070    14.798
    7    1   11   15 a        -0.501     0.064    15.395
    8    1   12   17 a        -0.474     0.096    15.516
    9    1   11   16 a        -0.501     0.070    15.543
   10    1   12   18 a        -0.474     0.118    16.110
--------------------------------------------------------

  Entering Davidson iterations
  Restricted singlet excited states

  Iter   NTrls   NConv    DeltaV     DeltaE      Time   
  ----  ------  ------  ---------  ---------  --------- 
    1     10       0     0.12E+00   0.10+100       19.1
    2     30       0     0.21E+00   0.47E-01       20.3
    3     50       0     0.78E-01   0.67E-01       20.3
    4     70       0     0.23E-01   0.52E-02       20.2
    5     90       0     0.34E-01   0.56E-03       20.3
    6    110       0     0.62E-01   0.15E-01       20.3
    7    130       1     0.17E-01   0.20E-02       20.4
    8    148       6     0.48E-02   0.12E-03       21.7
    9    156       7     0.12E-02   0.81E-05       17.3
   10    162       9     0.32E-03   0.46E-06       18.0
   11    164      10     0.78E-04   0.29E-07       15.6
  ----  ------  ------  ---------  ---------  --------- 
  Convergence criterion met
 
  Ground state a        -188.859462067135 a.u.
 
  ----------------------------------------------------------------------------
  Root   1 singlet a              0.247096896 a.u.                6.7239 eV 
  ----------------------------------------------------------------------------
     Transition Moments    X -0.09958   Y -0.00187   Z -0.00270
     Transition Moments   XX  0.02466  XY -0.58359  XZ -0.02696
     Transition Moments   YY -0.02310  YZ -0.01724  ZZ -0.00149
     Dipole Oscillator Strength                         0.00164
 
     Occ.   12  a   ---  Virt.   15  a   -0.22798 X
     Occ.   12  a   ---  Virt.   21  a    0.62881 X
     Occ.   12  a   ---  Virt.   22  a    0.39014 X
     Occ.   12  a   ---  Virt.   24  a   -0.44255 X
     Occ.   12  a   ---  Virt.   29  a   -0.33749 X
     Occ.   12  a   ---  Virt.   30  a    0.22224 X
     Occ.   12  a   ---  Virt.   40  a    0.11454 X
     Occ.   12  a   ---  Virt.   45  a    0.05298 X
     Occ.   12  a   ---  Virt.   50  a   -0.08729 X
  ----------------------------------------------------------------------------
  Root   2 singlet a              0.344239771 a.u.                9.3672 eV 
  ----------------------------------------------------------------------------
     Transition Moments    X -0.00138   Y -0.33124   Z  0.27275
     Transition Moments   XX  0.25094  XY  0.01669  XZ  0.01378
     Transition Moments   YY  0.64799  YZ -0.90620  ZZ  0.40559
     Dipole Oscillator Strength                         0.04225
 
     Occ.   11  a   ---  Virt.   15  a   -0.15582 X
     Occ.   11  a   ---  Virt.   21  a    0.40612 X
     Occ.   11  a   ---  Virt.   22  a    0.24170 X
     Occ.   11  a   ---  Virt.   24  a   -0.23266 X
     Occ.   11  a   ---  Virt.   29  a   -0.16194 X
     Occ.   11  a   ---  Virt.   30  a    0.12298 X
     Occ.   11  a   ---  Virt.   40  a    0.05061 X
     Occ.   12  a   ---  Virt.   13  a   -0.59531 X
     Occ.   12  a   ---  Virt.   14  a   -0.11877 X
     Occ.   12  a   ---  Virt.   16  a    0.16322 X
     Occ.   12  a   ---  Virt.   17  a   -0.30649 X
     Occ.   12  a   ---  Virt.   18  a    0.21820 X
     Occ.   12  a   ---  Virt.   19  a   -0.17573 X
     Occ.   12  a   ---  Virt.   23  a   -0.11166 X
     Occ.   12  a   ---  Virt.   27  a   -0.09947 X
     Occ.   12  a   ---  Virt.   31  a    0.09798 X
     Occ.   12  a   ---  Virt.   32  a    0.10745 X
     Occ.   12  a   ---  Virt.   38  a   -0.07152 X
     Occ.   12  a   ---  Virt.   44  a   -0.06972 X
  ----------------------------------------------------------------------------
  Root   3 singlet a              0.357492696 a.u.                9.7279 eV 
  ----------------------------------------------------------------------------
     Transition Moments    X  0.01834   Y  0.16290   Z -0.73718
     Transition Moments   XX  0.32885  XY -0.02024  XZ  0.04543
     Transition Moments   YY  1.13415  YZ  0.16876  ZZ -1.39307
     Dipole Oscillator Strength                         0.13592
 
     Occ.   11  a   ---  Virt.   15  a    0.15937 X
     Occ.   11  a   ---  Virt.   21  a   -0.43239 X
     Occ.   11  a   ---  Virt.   22  a   -0.24159 X
     Occ.   11  a   ---  Virt.   24  a    0.22584 X
     Occ.   11  a   ---  Virt.   29  a    0.16436 X
     Occ.   11  a   ---  Virt.   30  a   -0.12341 X
     Occ.   12  a   ---  Virt.   13  a   -0.46704 X
     Occ.   12  a   ---  Virt.   14  a    0.31242 X
     Occ.   12  a   ---  Virt.   16  a    0.34824 X
     Occ.   12  a   ---  Virt.   18  a    0.31546 X
     Occ.   12  a   ---  Virt.   19  a    0.10314 X
     Occ.   12  a   ---  Virt.   20  a   -0.07139 X
     Occ.   12  a   ---  Virt.   27  a   -0.07872 X
     Occ.   12  a   ---  Virt.   28  a   -0.15384 X
     Occ.   12  a   ---  Virt.   32  a    0.08441 X
     Occ.   12  a   ---  Virt.   34  a   -0.07334 X
     Occ.   12  a   ---  Virt.   36  a    0.05866 X
     Occ.   12  a   ---  Virt.   43  a   -0.07230 X
  ----------------------------------------------------------------------------
  Root   4 singlet a              0.359459759 a.u.                9.7814 eV 
  ----------------------------------------------------------------------------
     Transition Moments    X -0.04874   Y -0.00121   Z -0.00185
     Transition Moments   XX -0.07319  XY  0.21674  XZ  1.13186
     Transition Moments   YY  0.01161  YZ  0.02991  ZZ  0.06176
     Dipole Oscillator Strength                         0.00057
 
     Occ.    9  a   ---  Virt.   13  a   -0.08701 X
     Occ.    9  a   ---  Virt.   14  a   -0.06640 X
     Occ.    9  a   ---  Virt.   18  a    0.05097 X
     Occ.    9  a   ---  Virt.   19  a   -0.09939 X
     Occ.    9  a   ---  Virt.   20  a    0.05746 X
     Occ.    9  a   ---  Virt.   36  a   -0.06674 X
     Occ.    9  a   ---  Virt.   38  a   -0.05582 X
     Occ.   11  a   ---  Virt.   13  a   -0.68492 X
     Occ.   11  a   ---  Virt.   14  a   -0.28811 X
     Occ.   11  a   ---  Virt.   16  a    0.05634 X
     Occ.   11  a   ---  Virt.   17  a   -0.35588 X
     Occ.   11  a   ---  Virt.   18  a    0.26128 X
     Occ.   11  a   ---  Virt.   19  a   -0.33282 X
     Occ.   11  a   ---  Virt.   20  a    0.05189 X
     Occ.   11  a   ---  Virt.   23  a   -0.12526 X
     Occ.   11  a   ---  Virt.   26  a   -0.07105 X
     Occ.   11  a   ---  Virt.   27  a   -0.10592 X
     Occ.   11  a   ---  Virt.   31  a    0.11853 X
     Occ.   11  a   ---  Virt.   32  a    0.08142 X
     Occ.   11  a   ---  Virt.   36  a   -0.10515 X
     Occ.   11  a   ---  Virt.   38  a   -0.11730 X
  ----------------------------------------------------------------------------
  Root   5 singlet a              0.372451612 a.u.               10.1349 eV 
  ----------------------------------------------------------------------------
     Transition Moments    X -0.02007   Y  0.44572   Z  0.37044
     Transition Moments   XX -0.11720  XY  0.00063  XZ  0.01654
     Transition Moments   YY  0.77105  YZ -0.66703  ZZ -0.23009
     Dipole Oscillator Strength                         0.08350
 
     Occ.   10  a   ---  Virt.   13  a   -0.05018 X
     Occ.   11  a   ---  Virt.   15  a   -0.10709 X
     Occ.   11  a   ---  Virt.   21  a    0.29544 X
     Occ.   11  a   ---  Virt.   22  a    0.17031 X
     Occ.   11  a   ---  Virt.   24  a   -0.13729 X
     Occ.   11  a   ---  Virt.   29  a   -0.10291 X
     Occ.   11  a   ---  Virt.   30  a    0.07575 X
     Occ.   12  a   ---  Virt.   13  a    0.06124 X
     Occ.   12  a   ---  Virt.   14  a    0.75374 X
     Occ.   12  a   ---  Virt.   16  a   -0.11223 X
     Occ.   12  a   ---  Virt.   17  a    0.28972 X
     Occ.   12  a   ---  Virt.   18  a    0.19047 X
     Occ.   12  a   ---  Virt.   19  a    0.23200 X
     Occ.   12  a   ---  Virt.   20  a   -0.16961 X
     Occ.   12  a   ---  Virt.   27  a    0.11190 X
     Occ.   12  a   ---  Virt.   34  a   -0.06648 X
     Occ.   12  a   ---  Virt.   36  a    0.06465 X
  ----------------------------------------------------------------------------
  Root   6 singlet a              0.391055071 a.u.               10.6412 eV 
  ----------------------------------------------------------------------------
     Transition Moments    X  0.14507   Y  0.00457   Z  0.00340
     Transition Moments   XX  0.02464  XY -0.19513  XZ -0.28865
     Transition Moments   YY -0.00565  YZ -0.00997  ZZ -0.01567
     Dipole Oscillator Strength                         0.00549
 
     Occ.   10  a   ---  Virt.   21  a    0.10572 X
     Occ.   10  a   ---  Virt.   24  a   -0.07613 X
     Occ.   10  a   ---  Virt.   29  a   -0.06191 X
     Occ.   12  a   ---  Virt.   15  a    0.88864 X
     Occ.   12  a   ---  Virt.   21  a    0.29316 X
     Occ.   12  a   ---  Virt.   22  a    0.08029 X
     Occ.   12  a   ---  Virt.   24  a    0.18380 X
     Occ.   12  a   ---  Virt.   29  a   -0.11349 X
     Occ.   12  a   ---  Virt.   30  a    0.11735 X
     Occ.   12  a   ---  Virt.   37  a   -0.12015 X
     Occ.   12  a   ---  Virt.   40  a    0.07113 X
  ----------------------------------------------------------------------------
  Root   7 singlet a              0.395932247 a.u.               10.7739 eV 
  ----------------------------------------------------------------------------
     Transition Moments    X  0.00746   Y  0.36162   Z -0.43071
     Transition Moments   XX  0.19512  XY -0.01917  XZ -0.02689
     Transition Moments   YY  0.80903  YZ  0.48545  ZZ  0.91814
     Dipole Oscillator Strength                         0.08350
 
     Occ.    7  a   ---  Virt.   13  a    0.06056 X
     Occ.   11  a   ---  Virt.   21  a   -0.17832 X
     Occ.   11  a   ---  Virt.   22  a   -0.07132 X
     Occ.   11  a   ---  Virt.   24  a    0.05155 X
     Occ.   12  a   ---  Virt.   13  a   -0.42629 X
     Occ.   12  a   ---  Virt.   16  a   -0.79859 X
     Occ.   12  a   ---  Virt.   17  a    0.08816 X
     Occ.   12  a   ---  Virt.   19  a   -0.15884 X
     Occ.   12  a   ---  Virt.   20  a   -0.05770 X
     Occ.   12  a   ---  Virt.   26  a   -0.13085 X
     Occ.   12  a   ---  Virt.   27  a    0.13510 X
     Occ.   12  a   ---  Virt.   28  a    0.14317 X
     Occ.   12  a   ---  Virt.   32  a   -0.11326 X
  ----------------------------------------------------------------------------
  Root   8 singlet a              0.397425187 a.u.               10.8145 eV 
  ----------------------------------------------------------------------------
     Transition Moments    X -0.21137   Y  0.00030   Z -0.01338
     Transition Moments   XX  0.03955  XY -0.18129  XZ -0.51919
     Transition Moments   YY  0.00343  YZ -0.00832  ZZ -0.01903
     Dipole Oscillator Strength                         0.01188
 
     Occ.    9  a   ---  Virt.   13  a   -0.05640 X
     Occ.    9  a   ---  Virt.   16  a    0.06215 X
     Occ.    9  a   ---  Virt.   18  a    0.05758 X
     Occ.    9  a   ---  Virt.   19  a   -0.05362 X
     Occ.   10  a   ---  Virt.   15  a   -0.06002 X
     Occ.   10  a   ---  Virt.   21  a    0.13501 X
     Occ.   10  a   ---  Virt.   22  a    0.07790 X
     Occ.   10  a   ---  Virt.   24  a   -0.08994 X
     Occ.   10  a   ---  Virt.   29  a   -0.05913 X
     Occ.   11  a   ---  Virt.   13  a    0.37869 X
     Occ.   11  a   ---  Virt.   14  a   -0.71259 X
     Occ.   11  a   ---  Virt.   16  a   -0.10933 X
     Occ.   11  a   ---  Virt.   18  a   -0.31776 X
     Occ.   11  a   ---  Virt.   19  a   -0.28137 X
     Occ.   11  a   ---  Virt.   20  a    0.20916 X
     Occ.   11  a   ---  Virt.   23  a   -0.06238 X
     Occ.   11  a   ---  Virt.   32  a   -0.05531 X
     Occ.   11  a   ---  Virt.   34  a    0.08881 X
     Occ.   11  a   ---  Virt.   36  a   -0.11987 X
     Occ.   12  a   ---  Virt.   15  a   -0.07984 X
  ----------------------------------------------------------------------------
  Root   9 singlet a              0.400001203 a.u.               10.8846 eV 
  ----------------------------------------------------------------------------
     Transition Moments    X -0.02522   Y -0.00315   Z  0.00403
     Transition Moments   XX  0.01409  XY  0.61699  XZ -0.71650
     Transition Moments   YY  0.01912  YZ -0.00253  ZZ -0.04355
     Dipole Oscillator Strength                         0.00018
 
     Occ.    7  a   ---  Virt.   21  a    0.05553 X
     Occ.    8  a   ---  Virt.   21  a    0.16701 X
     Occ.    8  a   ---  Virt.   22  a    0.12147 X
     Occ.    8  a   ---  Virt.   24  a   -0.12809 X
     Occ.    8  a   ---  Virt.   29  a   -0.11622 X
     Occ.    8  a   ---  Virt.   30  a    0.07387 X
     Occ.    8  a   ---  Virt.   40  a    0.05412 X
     Occ.   10  a   ---  Virt.   15  a    0.21122 X
     Occ.   10  a   ---  Virt.   21  a   -0.60021 X
     Occ.   10  a   ---  Virt.   22  a   -0.33708 X
     Occ.   10  a   ---  Virt.   24  a    0.38839 X
     Occ.   10  a   ---  Virt.   29  a    0.28884 X
     Occ.   10  a   ---  Virt.   30  a   -0.19957 X
     Occ.   10  a   ---  Virt.   40  a   -0.09025 X
     Occ.   10  a   ---  Virt.   50  a    0.07207 X
     Occ.   11  a   ---  Virt.   13  a    0.10070 X
     Occ.   11  a   ---  Virt.   14  a   -0.15463 X
     Occ.   11  a   ---  Virt.   16  a   -0.09141 X
     Occ.   11  a   ---  Virt.   18  a   -0.06863 X
     Occ.   11  a   ---  Virt.   19  a   -0.07519 X
     Occ.   12  a   ---  Virt.   15  a    0.14693 X
  ----------------------------------------------------------------------------
  Root  10 singlet a              0.417409938 a.u.               11.3583 eV 
  ----------------------------------------------------------------------------
     Transition Moments    X -0.01194   Y -0.03100   Z  0.31685
     Transition Moments   XX  0.32724  XY  0.00982  XZ  0.00675
     Transition Moments   YY -0.00052  YZ -0.10069  ZZ  0.05582
     Dipole Oscillator Strength                         0.02824
 
     Occ.    9  a   ---  Virt.   22  a    0.06838 X
     Occ.   11  a   ---  Virt.   15  a    0.90180 X
     Occ.   11  a   ---  Virt.   21  a    0.23553 X
     Occ.   11  a   ---  Virt.   22  a    0.21470 X
     Occ.   11  a   ---  Virt.   24  a    0.17914 X
     Occ.   11  a   ---  Virt.   29  a   -0.07931 X
     Occ.   11  a   ---  Virt.   30  a    0.10077 X
     Occ.   11  a   ---  Virt.   33  a    0.05903 X
     Occ.   11  a   ---  Virt.   37  a   -0.08817 X
     Occ.   11  a   ---  Virt.   40  a    0.09131 X
 
              Target root =      1
          Target symmetry = none
      Ground state energy =   -188.859462067135
        Excitation energy =      0.247096895760
     Excited state energy =   -188.612365171376
 
 
   10 smallest eigenvalue differences (eV) 
--------------------------------------------------------
  No. Spin  Occ  Vir  Irrep   E(Occ)    E(Vir)   E(Diff)
--------------------------------------------------------
    1    1   12   13 a        -0.474     0.026    13.609
    2    1   12   14 a        -0.474     0.035    13.839
    3    1   11   13 a        -0.501     0.026    14.354
    4    1   11   14 a        -0.501     0.035    14.583
    5    1   12   15 a        -0.474     0.064    14.650
    6    1   12   16 a        -0.474     0.070    14.798
    7    1   11   15 a        -0.501     0.064    15.395
    8    1   12   17 a        -0.474     0.096    15.516
    9    1   11   16 a        -0.501     0.070    15.543
   10    1   12   18 a        -0.474     0.118    16.110
--------------------------------------------------------

  Entering Davidson iterations
  Restricted triplet excited states

  Iter   NTrls   NConv    DeltaV     DeltaE      Time   
  ----  ------  ------  ---------  ---------  --------- 
    1     10       0     0.83E-01   0.10+100       18.9
    2     30       0     0.20E+00   0.13E+00       20.1
    3     50       0     0.86E-01   0.70E-01       19.8
    4     70       0     0.94E-01   0.64E-02       20.1
    5     90       0     0.14E+00   0.12E-01       20.1
    6    110       0     0.74E-01   0.16E-01       20.2
    7    130       0     0.25E-01   0.39E-02       20.1
    8    150       2     0.67E-02   0.26E-03       20.2
    9    166       5     0.17E-02   0.15E-04       19.1
   10    176       7     0.42E-03   0.90E-06       19.2
   11    182       9     0.10E-03   0.51E-07       17.9
   12    183      10     0.91E-04   0.25E-08       15.1
  ----  ------  ------  ---------  ---------  --------- 
  Convergence criterion met
 
  Ground state a        -188.859462067135 a.u.
 
  ----------------------------------------------------------------------------
  Root   1 triplet a              0.184618807 a.u.                5.0237 eV 
  ----------------------------------------------------------------------------
     Transition Moments                    Spin forbidden
     Oscillator Strength                   Spin forbidden
 
     Occ.    9  a   ---  Virt.   15  a    0.05027 X
     Occ.    9  a   ---  Virt.   21  a   -0.20840 X
     Occ.    9  a   ---  Virt.   21  a   -0.07825 Y
     Occ.    9  a   ---  Virt.   22  a   -0.15365 X
     Occ.    9  a   ---  Virt.   22  a   -0.05956 Y
     Occ.    9  a   ---  Virt.   24  a    0.15860 X
     Occ.    9  a   ---  Virt.   24  a    0.06265 Y
     Occ.    9  a   ---  Virt.   29  a    0.14474 X
     Occ.    9  a   ---  Virt.   29  a    0.05990 Y
     Occ.    9  a   ---  Virt.   30  a   -0.10068 X
     Occ.    9  a   ---  Virt.   40  a   -0.08152 X
     Occ.    9  a   ---  Virt.   50  a    0.05154 X
     Occ.   11  a   ---  Virt.   15  a   -0.19777 X
     Occ.   11  a   ---  Virt.   15  a   -0.05373 Y
     Occ.   11  a   ---  Virt.   21  a    0.58445 X
     Occ.   11  a   ---  Virt.   21  a    0.16171 Y
     Occ.   11  a   ---  Virt.   22  a    0.36013 X
     Occ.   11  a   ---  Virt.   22  a    0.10384 Y
     Occ.   11  a   ---  Virt.   24  a   -0.45739 X
     Occ.   11  a   ---  Virt.   24  a   -0.15032 Y
     Occ.   11  a   ---  Virt.   29  a   -0.36228 X
     Occ.   11  a   ---  Virt.   29  a   -0.12165 Y
     Occ.   11  a   ---  Virt.   30  a    0.24364 X
     Occ.   11  a   ---  Virt.   30  a    0.08075 Y
     Occ.   11  a   ---  Virt.   40  a    0.12884 X
     Occ.   11  a   ---  Virt.   45  a    0.07145 X
     Occ.   11  a   ---  Virt.   50  a   -0.11658 X
     Occ.   11  a   ---  Virt.   50  a   -0.05644 Y
     Occ.   11  a   ---  Virt.   52  a   -0.05047 X
     Occ.   11  a   ---  Virt.   54  a   -0.06224 X
     Occ.   11  a   ---  Virt.   67  a   -0.06331 X
     Occ.   11  a   ---  Virt.   83  a   -0.05158 X
  ----------------------------------------------------------------------------
  Root   2 triplet a              0.215425145 a.u.                5.8620 eV 
  ----------------------------------------------------------------------------
     Transition Moments                    Spin forbidden
     Oscillator Strength                   Spin forbidden
 
     Occ.   12  a   ---  Virt.   15  a   -0.22179 X
     Occ.   12  a   ---  Virt.   21  a    0.61536 X
     Occ.   12  a   ---  Virt.   22  a    0.38884 X
     Occ.   12  a   ---  Virt.   24  a   -0.45593 X
     Occ.   12  a   ---  Virt.   29  a   -0.34167 X
     Occ.   12  a   ---  Virt.   30  a    0.22310 X
     Occ.   12  a   ---  Virt.   40  a    0.11971 X
     Occ.   12  a   ---  Virt.   45  a    0.05012 X
     Occ.   12  a   ---  Virt.   50  a   -0.09669 X
     Occ.   12  a   ---  Virt.   67  a   -0.05756 X
  ----------------------------------------------------------------------------
  Root   3 triplet a              0.336804448 a.u.                9.1649 eV 
  ----------------------------------------------------------------------------
     Transition Moments                    Spin forbidden
     Oscillator Strength                   Spin forbidden
 
     Occ.   12  a   ---  Virt.   13  a   -0.71637 X
     Occ.   12  a   ---  Virt.   14  a   -0.08122 X
     Occ.   12  a   ---  Virt.   16  a    0.26601 X
     Occ.   12  a   ---  Virt.   17  a   -0.36464 X
     Occ.   12  a   ---  Virt.   18  a    0.32216 X
     Occ.   12  a   ---  Virt.   19  a   -0.18309 X
     Occ.   12  a   ---  Virt.   20  a   -0.06760 X
     Occ.   12  a   ---  Virt.   23  a   -0.13619 X
     Occ.   12  a   ---  Virt.   27  a   -0.16126 X
     Occ.   12  a   ---  Virt.   28  a   -0.05805 X
     Occ.   12  a   ---  Virt.   31  a    0.11746 X
     Occ.   12  a   ---  Virt.   32  a    0.16206 X
     Occ.   12  a   ---  Virt.   38  a   -0.09427 X
     Occ.   12  a   ---  Virt.   44  a   -0.08908 X
  ----------------------------------------------------------------------------
  Root   4 triplet a              0.345652484 a.u.                9.4057 eV 
  ----------------------------------------------------------------------------
     Transition Moments                    Spin forbidden
     Oscillator Strength                   Spin forbidden
 
     Occ.    9  a   ---  Virt.   13  a   -0.10252 X
     Occ.    9  a   ---  Virt.   14  a   -0.07753 X
     Occ.    9  a   ---  Virt.   16  a   -0.05224 X
     Occ.    9  a   ---  Virt.   17  a   -0.05576 X
     Occ.    9  a   ---  Virt.   18  a    0.06416 X
     Occ.    9  a   ---  Virt.   19  a   -0.12662 X
     Occ.    9  a   ---  Virt.   20  a    0.07010 X
     Occ.    9  a   ---  Virt.   36  a   -0.09335 X
     Occ.    9  a   ---  Virt.   38  a   -0.08022 X
     Occ.   10  a   ---  Virt.   21  a   -0.05514 X
     Occ.   11  a   ---  Virt.   13  a   -0.61334 X
     Occ.   11  a   ---  Virt.   14  a   -0.27771 X
     Occ.   11  a   ---  Virt.   17  a   -0.35731 X
     Occ.   11  a   ---  Virt.   18  a    0.26707 X
     Occ.   11  a   ---  Virt.   19  a   -0.35070 X
     Occ.   11  a   ---  Virt.   20  a    0.07494 X
     Occ.   11  a   ---  Virt.   23  a   -0.13386 X
     Occ.   11  a   ---  Virt.   25  a    0.05734 X
     Occ.   11  a   ---  Virt.   26  a   -0.08282 X
     Occ.   11  a   ---  Virt.   27  a   -0.12070 X
     Occ.   11  a   ---  Virt.   31  a    0.13707 X
     Occ.   11  a   ---  Virt.   32  a    0.09430 X
     Occ.   11  a   ---  Virt.   36  a   -0.13482 X
     Occ.   11  a   ---  Virt.   38  a   -0.14126 X
     Occ.   11  a   ---  Virt.   44  a   -0.05317 X
     Occ.   11  a   ---  Virt.   62  a    0.05482 X
  ----------------------------------------------------------------------------
  Root   5 triplet a              0.354507343 a.u.                9.6466 eV 
  ----------------------------------------------------------------------------
     Transition Moments                    Spin forbidden
     Oscillator Strength                   Spin forbidden
 
     Occ.    7  a   ---  Virt.   20  a   -0.06925 X
     Occ.   10  a   ---  Virt.   13  a    0.05657 X
     Occ.   10  a   ---  Virt.   18  a   -0.06906 X
     Occ.   10  a   ---  Virt.   20  a    0.05106 X
     Occ.   10  a   ---  Virt.   38  a    0.05434 X
     Occ.   12  a   ---  Virt.   13  a    0.14334 X
     Occ.   12  a   ---  Virt.   14  a   -0.71181 X
     Occ.   12  a   ---  Virt.   16  a   -0.05174 X
     Occ.   12  a   ---  Virt.   17  a   -0.29317 X
     Occ.   12  a   ---  Virt.   18  a   -0.31878 X
     Occ.   12  a   ---  Virt.   19  a   -0.28168 X
     Occ.   12  a   ---  Virt.   20  a    0.22058 X
     Occ.   12  a   ---  Virt.   27  a   -0.13604 X
     Occ.   12  a   ---  Virt.   28  a    0.13013 X
     Occ.   12  a   ---  Virt.   31  a    0.07005 X
     Occ.   12  a   ---  Virt.   34  a    0.11731 X
     Occ.   12  a   ---  Virt.   35  a   -0.07001 X
     Occ.   12  a   ---  Virt.   36  a   -0.12952 X
     Occ.   12  a   ---  Virt.   38  a    0.06164 X
     Occ.   12  a   ---  Virt.   42  a   -0.06016 X
  ----------------------------------------------------------------------------
  Root   6 triplet a              0.357352016 a.u.                9.7240 eV 
  ----------------------------------------------------------------------------
     Transition Moments                    Spin forbidden
     Oscillator Strength                   Spin forbidden
 
     Occ.    7  a   ---  Virt.   21  a   -0.08227 X
     Occ.    7  a   ---  Virt.   22  a   -0.05851 X
     Occ.    7  a   ---  Virt.   24  a    0.05284 X
     Occ.    8  a   ---  Virt.   15  a    0.06311 X
     Occ.    8  a   ---  Virt.   21  a   -0.21943 X
     Occ.    8  a   ---  Virt.   22  a   -0.15747 X
     Occ.    8  a   ---  Virt.   24  a    0.17108 X
     Occ.    8  a   ---  Virt.   29  a    0.15355 X
     Occ.    8  a   ---  Virt.   30  a   -0.10366 X
     Occ.    8  a   ---  Virt.   40  a   -0.07377 X
     Occ.   10  a   ---  Virt.   15  a   -0.18777 X
     Occ.   10  a   ---  Virt.   21  a    0.57852 X
     Occ.   10  a   ---  Virt.   22  a    0.33106 X
     Occ.   10  a   ---  Virt.   24  a   -0.39315 X
     Occ.   10  a   ---  Virt.   29  a   -0.30724 X
     Occ.   10  a   ---  Virt.   30  a    0.20539 X
     Occ.   10  a   ---  Virt.   40  a    0.10301 X
     Occ.   10  a   ---  Virt.   50  a   -0.07903 X
     Occ.   11  a   ---  Virt.   14  a   -0.05450 X
     Occ.   12  a   ---  Virt.   15  a    0.05717 X
  ----------------------------------------------------------------------------
  Root   7 triplet a              0.377829343 a.u.               10.2813 eV 
  ----------------------------------------------------------------------------
     Transition Moments                    Spin forbidden
     Oscillator Strength                   Spin forbidden
 
     Occ.    7  a   ---  Virt.   13  a   -0.06187 X
     Occ.    7  a   ---  Virt.   18  a    0.06373 X
     Occ.   10  a   ---  Virt.   14  a   -0.06541 X
     Occ.   10  a   ---  Virt.   20  a    0.06050 X
     Occ.   12  a   ---  Virt.   13  a    0.26062 X
     Occ.   12  a   ---  Virt.   16  a    0.75991 X
     Occ.   12  a   ---  Virt.   17  a   -0.05906 X
     Occ.   12  a   ---  Virt.   19  a    0.20762 X
     Occ.   12  a   ---  Virt.   20  a    0.15520 X
     Occ.   12  a   ---  Virt.   23  a    0.16465 X
     Occ.   12  a   ---  Virt.   26  a    0.18235 X
     Occ.   12  a   ---  Virt.   27  a   -0.23224 X
     Occ.   12  a   ---  Virt.   28  a   -0.20761 X
     Occ.   12  a   ---  Virt.   31  a   -0.05251 X
     Occ.   12  a   ---  Virt.   32  a    0.13392 X
     Occ.   12  a   ---  Virt.   35  a   -0.11654 X
     Occ.   12  a   ---  Virt.   38  a    0.11878 X
     Occ.   12  a   ---  Virt.   43  a   -0.10291 X
     Occ.   12  a   ---  Virt.   46  a    0.06868 X
  ----------------------------------------------------------------------------
  Root   8 triplet a              0.390071354 a.u.               10.6144 eV 
  ----------------------------------------------------------------------------
     Transition Moments                    Spin forbidden
     Oscillator Strength                   Spin forbidden
 
     Occ.   12  a   ---  Virt.   15  a   -0.89114 X
     Occ.   12  a   ---  Virt.   21  a   -0.30309 X
     Occ.   12  a   ---  Virt.   22  a   -0.07977 X
     Occ.   12  a   ---  Virt.   24  a   -0.19100 X
     Occ.   12  a   ---  Virt.   29  a    0.11690 X
     Occ.   12  a   ---  Virt.   30  a   -0.12470 X
     Occ.   12  a   ---  Virt.   37  a    0.12652 X
     Occ.   12  a   ---  Virt.   40  a   -0.07243 X
  ----------------------------------------------------------------------------
  Root   9 triplet a              0.390315079 a.u.               10.6210 eV 
  ----------------------------------------------------------------------------
     Transition Moments                    Spin forbidden
     Oscillator Strength                   Spin forbidden
 
     Occ.    9  a   ---  Virt.   15  a    0.18751 X
     Occ.    9  a   ---  Virt.   21  a   -0.52661 X
     Occ.    9  a   ---  Virt.   21  a   -0.05269 Y
     Occ.    9  a   ---  Virt.   22  a   -0.18167 X
     Occ.    9  a   ---  Virt.   24  a    0.36357 X
     Occ.    9  a   ---  Virt.   29  a    0.27571 X
     Occ.    9  a   ---  Virt.   30  a   -0.19071 X
     Occ.    9  a   ---  Virt.   37  a    0.06367 X
     Occ.    9  a   ---  Virt.   45  a   -0.05020 X
     Occ.    9  a   ---  Virt.   50  a    0.08360 X
     Occ.    9  a   ---  Virt.   54  a    0.05570 X
     Occ.    9  a   ---  Virt.   64  a    0.05390 X
     Occ.   11  a   ---  Virt.   15  a    0.46878 X
     Occ.   11  a   ---  Virt.   21  a   -0.17365 X
     Occ.   11  a   ---  Virt.   22  a    0.13264 X
     Occ.   11  a   ---  Virt.   24  a    0.23497 X
     Occ.   11  a   ---  Virt.   33  a    0.10831 X
     Occ.   11  a   ---  Virt.   40  a    0.09986 X
     Occ.   11  a   ---  Virt.   64  a    0.06719 X
     Occ.   12  a   ---  Virt.   14  a   -0.05250 X
  ----------------------------------------------------------------------------
  Root  10 triplet a              0.392626002 a.u.               10.6839 eV 
  ----------------------------------------------------------------------------
     Transition Moments                    Spin forbidden
     Oscillator Strength                   Spin forbidden
 
     Occ.    9  a   ---  Virt.   13  a   -0.09734 X
     Occ.    9  a   ---  Virt.   16  a    0.07554 X
     Occ.    9  a   ---  Virt.   18  a    0.08911 X
     Occ.    9  a   ---  Virt.   19  a   -0.07040 X
     Occ.    9  a   ---  Virt.   32  a    0.05233 X
     Occ.    9  a   ---  Virt.   38  a   -0.05241 X
     Occ.   11  a   ---  Virt.   13  a    0.39310 X
     Occ.   11  a   ---  Virt.   14  a   -0.62929 X
     Occ.   11  a   ---  Virt.   16  a   -0.27283 X
     Occ.   11  a   ---  Virt.   17  a    0.05951 X
     Occ.   11  a   ---  Virt.   18  a   -0.32845 X
     Occ.   11  a   ---  Virt.   19  a   -0.29196 X
     Occ.   11  a   ---  Virt.   20  a    0.21321 X
     Occ.   11  a   ---  Virt.   23  a   -0.09361 X
     Occ.   11  a   ---  Virt.   27  a    0.05595 X
     Occ.   11  a   ---  Virt.   28  a    0.08805 X
     Occ.   11  a   ---  Virt.   32  a   -0.11773 X
     Occ.   11  a   ---  Virt.   34  a    0.09530 X
     Occ.   11  a   ---  Virt.   36  a   -0.14351 X
 
              Target root =      1
          Target symmetry = none
      Ground state energy =   -188.859462067135
        Excitation energy =      0.184618806929
     Excited state energy =   -188.674843260206
 

 Task  times  cpu:      491.7s     wall:      522.0s
 
 
                                NWChem Input Module
                                -------------------
 
 
 Summary of allocated global arrays
-----------------------------------
  No active global arrays



                         GA Statistics for process    0
                         ------------------------------

       create   destroy   get      put      acc     scatter   gather  read&inc
calls: 2683     2683     1.14e+07 3.21e+05 7.97e+06 1041        0     1253     
number of processes/call 1.21e+00 1.64e+00 1.20e+00 0.00e+00 0.00e+00
bytes total:             5.10e+10 3.65e+08 3.68e+10 3.07e+04 0.00e+00 1.00e+04
bytes remote:            4.90e+10 1.05e+08 3.56e+10 -1.15e+03 0.00e+00 0.00e+00
Max memory consumed for GA by this process: 23923520 bytes
 
MA_summarize_allocated_blocks: starting scan ...
MA_summarize_allocated_blocks: scan completed: 0 heap blocks, 0 stack blocks
MA usage statistics:

	allocation statistics:
					      heap	     stack
					      ----	     -----
	current number of blocks	         0	         0
	maximum number of blocks	        20	        35
	current total bytes		         0	         0
	maximum total bytes		     80152	  47660440
	maximum total K-bytes		        81	     47661
	maximum total M-bytes		         1	        48
 
 
                                     CITATION
                                     --------
                Please cite the following reference when publishing
                           results obtained with NWChem:
 
                 M. Valiev, E.J. Bylaska, N. Govind, K. Kowalski,
              T.P. Straatsma, H.J.J. van Dam, D. Wang, J. Nieplocha,
                        E. Apra, T.L. Windus, W.A. de Jong
                 "NWChem: a comprehensive and scalable open-source
                  solution for large scale molecular simulations"
                      Comput. Phys. Commun. 181, 1477 (2010)
                           doi:10.1016/j.cpc.2010.04.018
 
                                      AUTHORS
                                      -------
          E. Apra, E. J. Bylaska, W. A. de Jong, N. Govind, K. Kowalski,
       T. P. Straatsma, M. Valiev, H. J. J. van Dam, D. Wang, T. L. Windus,
        J. Hammond, J. Autschbach, K. Bhaskaran-Nair, J. Brabec, K. Lopata,
       S. A. Fischer, S. Krishnamoorthy, W. Ma, M. Klemm, O. Villa, Y. Chen,
    V. Anisimov, F. Aquino, S. Hirata, M. T. Hackler, T. Risthaus, M. Malagoli,
       A. Marenich, A. Otero-de-la-Roza, J. Mullin, P. Nichols, R. Peverati,
     J. Pittner, Y. Zhao, P.-D. Fan, A. Fonari, M. Williamson, R. J. Harrison,
       J. R. Rehr, M. Dupuis, D. Silverstein, D. M. A. Smith, J. Nieplocha,
        V. Tipparaju, M. Krishnan, B. E. Van Kuiken, A. Vazquez-Mayagoitia,
        L. Jensen, M. Swart, Q. Wu, T. Van Voorhis, A. A. Auer, M. Nooijen,
      L. D. Crosby, E. Brown, G. Cisneros, G. I. Fann, H. Fruchtl, J. Garza,
        K. Hirao, R. A. Kendall, J. A. Nichols, K. Tsemekhman, K. Wolinski,
     J. Anchell, D. E. Bernholdt, P. Borowski, T. Clark, D. Clerc, H. Dachsel,
   M. J. O. Deegan, K. Dyall, D. Elwood, E. Glendening, M. Gutowski, A. C. Hess,
         J. Jaffe, B. G. Johnson, J. Ju, R. Kobayashi, R. Kutteh, Z. Lin,
   R. Littlefield, X. Long, B. Meng, T. Nakajima, S. Niu, L. Pollack, M. Rosing,
   K. Glaesemann, G. Sandrone, M. Stave, H. Taylor, G. Thomas, J. H. van Lenthe,
                               A. T. Wong, Z. Zhang.

 Total times  cpu:      491.7s     wall:      522.1s
