 argument  1 = methane.nw
 


============================== echo of input deck ==============================
start

permanent_dir /gpfs/scratch/bsundahl
scratch_dir /gpfs/scratch/bsundahl

title "Methane"

memory stack 400 mb heap 800 mb global 4000 mb

echo

geometry units atomic noautosym
  C            -0.04714860           0.09934631          -0.05454144
  H            -0.12614557           1.41489066          -1.61627626
  H            -0.06377846           1.13129110           1.70900980
  H             1.66945429          -1.00317140          -0.17990597
  H            -1.66413157          -1.14786760          -0.12999600
end

basis spherical
 * library aug-cc-pvqz
end

driver
 maxiter 200
end

dft
 xc hfexch
 noio                         # turns off IO in charge fitting
 grid nodisk                  # turns off IO in grid
 direct                       # forces incore integrals
 maxiter 200
end

tddft
 nroots 10
end

task tddft energy
================================================================================


                                         
                                         
 
 
              Northwest Computational Chemistry Package (NWChem) 6.6
              ------------------------------------------------------
 
 
                    Environmental Molecular Sciences Laboratory
                       Pacific Northwest National Laboratory
                                Richland, WA 99352
 
                              Copyright (c) 1994-2015
                       Pacific Northwest National Laboratory
                            Battelle Memorial Institute
 
             NWChem is an open-source computational chemistry package
                        distributed under the terms of the
                      Educational Community License (ECL) 2.0
             A copy of the license is included with this distribution
                              in the LICENSE.TXT file
 
                                  ACKNOWLEDGMENT
                                  --------------

            This software and its documentation were developed at the
            EMSL at Pacific Northwest National Laboratory, a multiprogram
            national laboratory, operated for the U.S. Department of Energy
            by Battelle under Contract Number DE-AC05-76RL01830. Support
            for this work was provided by the Department of Energy Office
            of Biological and Environmental Research, Office of Basic
            Energy Sciences, and the Office of Advanced Scientific Computing.


           Job information
           ---------------

    hostname        = sn037
    program         = nwchem
    date            = Wed Aug  9 10:53:19 2017

    compiled        = Mon_Apr_10_13:22:52_2017
    source          = /gpfs/home/bsundahl/nwchem-6.6
    nwchem branch   = 6.6
    nwchem revision = 27746
    ga revision     = 10594
    input           = methane.nw
    prefix          = methane.
    data base       = /gpfs/scratch/bsundahl/methane.db
    status          = startup
    nproc           =       28
    time left       =     -1s



           Memory information
           ------------------

    heap     =  104857596 doubles =    800.0 Mbytes
    stack    =   52428801 doubles =    400.0 Mbytes
    global   =  524288000 doubles =   4000.0 Mbytes (distinct from heap & stack)
    total    =  681574397 doubles =   5200.0 Mbytes
    verify   = yes
    hardfail = no 


           Directory information
           ---------------------
 
  0 permanent = /gpfs/scratch/bsundahl
  0 scratch   = /gpfs/scratch/bsundahl
 
 
 
 
                                NWChem Input Module
                                -------------------
 
 
                                      Methane
                                      -------

          ------
          auto-z
          ------
  Looking for out-of-plane bends
 
 
                             Geometry "geometry" -> ""
                             -------------------------
 
 Output coordinates in a.u. (scale by  1.000000000 to convert to a.u.)
 
  No.       Tag          Charge          X              Y              Z
 ---- ---------------- ---------- -------------- -------------- --------------
    1 C                    6.0000    -0.00039931     0.00022425    -0.00009973
    2 H                    1.0000    -0.07939628     1.31576860    -1.56183455
    3 H                    1.0000    -0.01702917     1.03216904     1.76345151
    4 H                    1.0000     1.71620358    -1.10229346    -0.12546426
    5 H                    1.0000    -1.61738228    -1.24698966    -0.07555429
 
      Atomic Mass 
      ----------- 
 
      C                 12.000000
      H                  1.007825
 

 Effective nuclear repulsion energy (a.u.)      13.5419589048

            Nuclear Dipole moment (a.u.) 
            ----------------------------
        X                 Y               Z
 ---------------- ---------------- ----------------
     0.0000000000     0.0000000000     0.0000000000
 


                                Z-matrix (autoz)
                                -------- 

 Units are Angstrom for bonds and degrees for angles
 
      Type          Name      I     J     K     L     M      Value
      ----------- --------  ----- ----- ----- ----- ----- ----------
    1 Stretch                  1     2                       1.08138
    2 Stretch                  1     3                       1.08130
    3 Stretch                  1     4                       1.08164
    4 Stretch                  1     5                       1.08137
    5 Bend                     2     1     3               109.52141
    6 Bend                     2     1     4               109.44088
    7 Bend                     2     1     5               109.51815
    8 Bend                     3     1     4               109.40076
    9 Bend                     3     1     5               109.49119
   10 Bend                     4     1     5               109.45483
 
 
            XYZ format geometry
            -------------------
     5
 geometry
 C                    -0.00021131     0.00011867    -0.00005278
 H                    -0.04201470     0.69627481    -0.82648731
 H                    -0.00901145     0.54620037     0.93317842
 H                     0.90817589    -0.58330862    -0.06639283
 H                    -0.85588190    -0.65987856    -0.03998161
 
 ==============================================================================
                                internuclear distances
 ------------------------------------------------------------------------------
       center one      |      center two      | atomic units |       a.u.
 ------------------------------------------------------------------------------
    2 H                |   1 C                |     2.04351  |     2.04351
    3 H                |   1 C                |     2.04335  |     2.04335
    4 H                |   1 C                |     2.04401  |     2.04401
    5 H                |   1 C                |     2.04349  |     2.04349
 ------------------------------------------------------------------------------
                         number of included internuclear distances:          4
 ==============================================================================



 ==============================================================================
                                 internuclear angles
 ------------------------------------------------------------------------------
        center 1       |       center 2       |       center 3       |  degrees
 ------------------------------------------------------------------------------
    2 H                |   1 C                |   3 H                |   109.52
    2 H                |   1 C                |   4 H                |   109.44
    2 H                |   1 C                |   5 H                |   109.52
    3 H                |   1 C                |   4 H                |   109.40
    3 H                |   1 C                |   5 H                |   109.49
    4 H                |   1 C                |   5 H                |   109.45
 ------------------------------------------------------------------------------
                            number of included internuclear angles:          6
 ==============================================================================





 Summary of "ao basis" -> "" (spherical)
 ------------------------------------------------------------------------------
       Tag                 Description            Shells   Functions and Types
 ---------------- ------------------------------  ------  ---------------------
 *                        aug-cc-pvqz                 on all atoms 


  xc_inp: hfexch multiplicative factor not found.
 
                                 NWChem DFT Module
                                 -----------------
 
 
                                      Methane
 
 
                      Basis "ao basis" -> "ao basis" (spherical)
                      -----
  C (Carbon)
  ----------
            Exponent  Coefficients 
       -------------- ---------------------------------------------------------
  1 S  3.39800000E+04  0.000091
  1 S  5.08900000E+03  0.000704
  1 S  1.15700000E+03  0.003693
  1 S  3.26600000E+02  0.015360
  1 S  1.06100000E+02  0.052929
  1 S  3.81100000E+01  0.147043
  1 S  1.47500000E+01  0.305631
  1 S  6.03500000E+00  0.399345
  1 S  2.53000000E+00  0.217051
 
  2 S  3.39800000E+04 -0.000019
  2 S  5.08900000E+03 -0.000151
  2 S  1.15700000E+03 -0.000785
  2 S  3.26600000E+02 -0.003324
  2 S  1.06100000E+02 -0.011512
  2 S  3.81100000E+01 -0.034160
  2 S  1.47500000E+01 -0.077173
  2 S  6.03500000E+00 -0.141493
  2 S  2.53000000E+00 -0.118019
 
  3 S  7.35500000E-01  1.000000
 
  4 S  2.90500000E-01  1.000000
 
  5 S  1.11100000E-01  1.000000
 
  6 S  4.14500000E-02  1.000000
 
  7 P  3.45100000E+01  0.005378
  7 P  7.91500000E+00  0.036132
  7 P  2.36800000E+00  0.142493
 
  8 P  8.13200000E-01  1.000000
 
  9 P  2.89000000E-01  1.000000
 
 10 P  1.00700000E-01  1.000000
 
 11 P  3.21800000E-02  1.000000
 
 12 D  1.84800000E+00  1.000000
 
 13 D  6.49000000E-01  1.000000
 
 14 D  2.28000000E-01  1.000000
 
 15 D  7.66000000E-02  1.000000
 
 16 F  1.41900000E+00  1.000000
 
 17 F  4.85000000E-01  1.000000
 
 18 F  1.87000000E-01  1.000000
 
 19 G  1.01100000E+00  1.000000
 
 20 G  4.24000000E-01  1.000000
 
  H (Hydrogen)
  ------------
            Exponent  Coefficients 
       -------------- ---------------------------------------------------------
  1 S  8.26400000E+01  0.002006
  1 S  1.24100000E+01  0.015343
  1 S  2.82400000E+00  0.075579
 
  2 S  7.97700000E-01  1.000000
 
  3 S  2.58100000E-01  1.000000
 
  4 S  8.98900000E-02  1.000000
 
  5 S  2.36300000E-02  1.000000
 
  6 P  2.29200000E+00  1.000000
 
  7 P  8.38000000E-01  1.000000
 
  8 P  2.92000000E-01  1.000000
 
  9 P  8.48000000E-02  1.000000
 
 10 D  2.06200000E+00  1.000000
 
 11 D  6.62000000E-01  1.000000
 
 12 D  1.90000000E-01  1.000000
 
 13 F  1.39700000E+00  1.000000
 
 14 F  3.60000000E-01  1.000000
 


 Summary of "ao basis" -> "ao basis" (spherical)
 ------------------------------------------------------------------------------
       Tag                 Description            Shells   Functions and Types
 ---------------- ------------------------------  ------  ---------------------
 C                        aug-cc-pvqz               20       80   6s5p4d3f2g
 H                        aug-cc-pvqz               14       46   5s4p3d2f




 Summary of "ao basis" -> "ao basis" (spherical)
 ------------------------------------------------------------------------------
       Tag                 Description            Shells   Functions and Types
 ---------------- ------------------------------  ------  ---------------------
 C                        aug-cc-pvqz               20       80   6s5p4d3f2g
 H                        aug-cc-pvqz               14       46   5s4p3d2f


  Caching 1-el integrals 
 
            General Information
            -------------------
          SCF calculation type: DFT
          Wavefunction type:  closed shell.
          No. of atoms     :     5
          No. of electrons :    10
           Alpha electrons :     5
            Beta electrons :     5
          Charge           :     0
          Spin multiplicity:     1
          Use of symmetry is: off; symmetry adaption is: off
          Maximum number of iterations: 200
          This is a Direct SCF calculation.
          AO basis - number of functions:   264
                     number of shells:    76
          Convergence on energy requested: 1.00D-06
          Convergence on density requested: 1.00D-05
          Convergence on gradient requested: 5.00D-04
 
              XC Information
              --------------
                     Hartree-Fock (Exact) Exchange  1.000          
 
          Convergence Information
          -----------------------
          Convergence aids based upon iterative change in 
          total energy or number of iterations. 
          Levelshifting, if invoked, occurs when the 
          HOMO/LUMO gap drops below (HL_TOL): 1.00D-02
          DIIS, if invoked, will attempt to extrapolate 
          using up to (NFOCK): 10 stored Fock matrices.

                    Damping( 0%)  Levelshifting(0.5)       DIIS
                  --------------- ------------------- ---------------
          dE  on:    start            ASAP                start   
          dE off:    2 iters        200 iters           200 iters 

 
      Screening Tolerance Information
      -------------------------------
          Density screening/tol_rho: 1.00D-10
          AO Gaussian exp screening on grid/accAOfunc:  14
          CD Gaussian exp screening on grid/accCDfunc:  20
          XC Gaussian exp screening on grid/accXCfunc:  20
          Schwarz screening/accCoul: 1.00D-08

 
      Superposition of Atomic Density Guess
      -------------------------------------
 
 Sum of atomic energies:         -39.67191999
 
      Non-variational initial energy
      ------------------------------

 Total energy =     -40.276018
 1-e energy   =     -78.428511
 2-e energy   =      24.610533
 HOMO         =      -0.527389
 LUMO         =       0.016385
 
   Time after variat. SCF:      0.6
   Time prior to 1st pass:      0.6

           Memory utilization after 1st SCF pass: 
           Heap Space remaining (MW):      104.85           104851532
          Stack Space remaining (MW):       52.43            52427364

   convergence    iter        energy       DeltaE   RMS-Dens  Diis-err    time
 ---------------- ----- ----------------- --------- --------- ---------  ------
 d= 0,ls=0.0,diis     1    -40.2030465034 -5.37D+01  7.18D-04  8.99D-02     2.4
 d= 0,ls=0.0,diis     2    -40.2149917434 -1.19D-02  1.50D-04  8.09D-03     4.3
 d= 0,ls=0.0,diis     3    -40.2161828465 -1.19D-03  6.83D-05  8.38D-04     6.3
 d= 0,ls=0.0,diis     4    -40.2163416837 -1.59D-04  2.04D-05  1.38D-05     8.2
 d= 0,ls=0.0,diis     5    -40.2163459180 -4.23D-06  3.85D-06  1.66D-07    10.2
 d= 0,ls=0.0,diis     6    -40.2163459715 -5.35D-08  2.31D-07  1.53D-09    12.1


         Total DFT energy =      -40.216345971506
      One electron energy =      -79.939438790783
           Coulomb energy =       32.786564094246
    Exchange-Corr. energy =       -6.605430179806
 Nuclear repulsion energy =       13.541958904837

 Numeric. integr. density =        0.000000000000

     Total iterative time =     11.6s


 
                       DFT Final Molecular Orbital Analysis
                       ------------------------------------
 
 Vector    1  Occ=2.000000D+00  E=-1.120205D+01
              MO Center= -2.1D-04,  1.2D-04, -5.3D-05, r^2= 2.7D-02
   Bfn.  Coefficient  Atom+Function         Bfn.  Coefficient  Atom+Function  
  ----- ------------  ---------------      ----- ------------  ---------------
     1      0.993780  1 C  s          
 
 Vector    2  Occ=2.000000D+00  E=-9.458364D-01
              MO Center=  5.8D-05,  3.6D-06,  1.1D-04, r^2= 9.9D-01
   Bfn.  Coefficient  Atom+Function         Bfn.  Coefficient  Atom+Function  
  ----- ------------  ---------------      ----- ------------  ---------------
     4      0.435920  1 C  s                  2      0.270727  1 C  s          
     3      0.187754  1 C  s          
 
 Vector    3  Occ=2.000000D+00  E=-5.470369D-01
              MO Center= -4.3D-02,  2.7D-01, -1.5D-01, r^2= 1.2D+00
   Bfn.  Coefficient  Atom+Function         Bfn.  Coefficient  Atom+Function  
  ----- ------------  ---------------      ----- ------------  ---------------
    15      0.251044  1 C  pz                12      0.197694  1 C  pz         
    83     -0.187609  2 H  s                 82     -0.164240  2 H  s          
    18      0.160451  1 C  pz         
 
 Vector    4  Occ=2.000000D+00  E=-5.469807D-01
              MO Center= -2.6D-01, -1.4D-01,  1.2D-01, r^2= 1.2D+00
   Bfn.  Coefficient  Atom+Function         Bfn.  Coefficient  Atom+Function  
  ----- ------------  ---------------      ----- ------------  ---------------
   221     -0.187902  5 H  s                 13      0.186172  1 C  px         
    14      0.175017  1 C  py               220     -0.164457  5 H  s          
 
 Vector    5  Occ=2.000000D+00  E=-5.466841D-01
              MO Center=  3.1D-01, -1.3D-01,  2.8D-02, r^2= 1.2D+00
   Bfn.  Coefficient  Atom+Function         Bfn.  Coefficient  Atom+Function  
  ----- ------------  ---------------      ----- ------------  ---------------
    13      0.197922  1 C  px               175      0.195882  4 H  s          
    14     -0.183483  1 C  py               174      0.171095  4 H  s          
    10      0.155917  1 C  px         
 
 Vector    6  Occ=0.000000D+00  E= 2.745347D-02
              MO Center=  5.1D-04, -2.7D-04,  2.4D-04, r^2= 2.1D+01
   Bfn.  Coefficient  Atom+Function         Bfn.  Coefficient  Atom+Function  
  ----- ------------  ---------------      ----- ------------  ---------------
     5      7.962911  1 C  s                  6      5.437430  1 C  s          
    84     -2.183223  2 H  s                130     -2.184027  3 H  s          
   176     -2.183030  4 H  s                222     -2.183414  5 H  s          
    83     -1.001956  2 H  s                129     -1.001469  3 H  s          
   175     -0.999913  4 H  s                221     -1.001829  5 H  s          
 
 Vector    7  Occ=0.000000D+00  E= 4.512343D-02
              MO Center= -3.3D-01,  1.3D+00, -8.8D-01, r^2= 2.4D+01
   Bfn.  Coefficient  Atom+Function         Bfn.  Coefficient  Atom+Function  
  ----- ------------  ---------------      ----- ------------  ---------------
    85      6.875117  2 H  s                 84      5.059783  2 H  s          
   131     -4.047917  3 H  s                130     -2.979699  3 H  s          
   223     -2.822334  5 H  s                 18      2.602172  1 C  pz         
    21      2.178967  1 C  pz               222     -2.077501  5 H  s          
    17     -1.236083  1 C  py                20     -1.035361  1 C  py         
 
 Vector    8  Occ=0.000000D+00  E= 4.512724D-02
              MO Center= -1.3D+00, -6.5D-01,  7.6D-01, r^2= 2.3D+01
   Bfn.  Coefficient  Atom+Function         Bfn.  Coefficient  Atom+Function  
  ----- ------------  ---------------      ----- ------------  ---------------
   223      6.688264  5 H  s                131     -4.929910  3 H  s          
   222      4.922393  5 H  s                130     -3.628848  3 H  s          
    16      1.983210  1 C  px                17      1.749378  1 C  py         
    19      1.661273  1 C  px               177     -1.600412  4 H  s          
    20      1.464497  1 C  py                18      1.289341  1 C  pz         
 
 Vector    9  Occ=0.000000D+00  E= 4.514203D-02
              MO Center=  1.7D+00, -6.9D-01,  1.2D-01, r^2= 2.3D+01
   Bfn.  Coefficient  Atom+Function         Bfn.  Coefficient  Atom+Function  
  ----- ------------  ---------------      ----- ------------  ---------------
   177      7.151591  4 H  s                176      5.264673  4 H  s          
   131     -3.611047  3 H  s                130     -2.658943  3 H  s          
    85     -2.533697  2 H  s                 16     -2.086230  1 C  px         
    17      2.015833  1 C  py                84     -1.865671  2 H  s          
    19     -1.746638  1 C  px                20      1.687735  1 C  py         
 
 Vector   10  Occ=0.000000D+00  E= 1.063254D-01
              MO Center= -5.1D-01,  2.0D-01, -8.2D-02, r^2= 1.9D+01
   Bfn.  Coefficient  Atom+Function         Bfn.  Coefficient  Atom+Function  
  ----- ------------  ---------------      ----- ------------  ---------------
   177      8.489419  4 H  s                131     -4.781927  3 H  s          
    20      4.163962  1 C  py                19     -4.103581  1 C  px         
    85     -2.734477  2 H  s                 17      2.289618  1 C  py         
    16     -2.257437  1 C  px               176      1.471972  4 H  s          
    21      1.286484  1 C  pz               223     -0.970985  5 H  s          
 
 Vector   11  Occ=0.000000D+00  E= 1.063611D-01
              MO Center=  4.2D-01,  2.4D-01, -2.1D-01, r^2= 1.9D+01
   Bfn.  Coefficient  Atom+Function         Bfn.  Coefficient  Atom+Function  
  ----- ------------  ---------------      ----- ------------  ---------------
   223      8.162852  5 H  s                131     -5.606748  3 H  s          
    19      4.252802  1 C  px                20      3.434174  1 C  py         
    21      2.450421  1 C  pz                16      2.334756  1 C  px         
   177     -2.303629  4 H  s                 17      1.886085  1 C  py         
   222      1.402913  5 H  s                 18      1.346061  1 C  pz         
 
 Vector   12  Occ=0.000000D+00  E= 1.063688D-01
              MO Center=  9.1D-02, -4.3D-01,  2.9D-01, r^2= 1.9D+01
   Bfn.  Coefficient  Atom+Function         Bfn.  Coefficient  Atom+Function  
  ----- ------------  ---------------      ----- ------------  ---------------
    85      8.368086  2 H  s                 21      5.313521  1 C  pz         
   131     -4.825283  3 H  s                223     -3.161220  5 H  s          
    18      2.917546  1 C  pz                20     -2.593819  1 C  py         
    84      1.437826  2 H  s                 17     -1.423068  1 C  py         
   189     -1.134970  4 H  pz               235     -1.128488  5 H  pz         
 
 Vector   13  Occ=0.000000D+00  E= 1.234463D-01
              MO Center= -8.2D-04,  5.0D-04, -1.8D-04, r^2= 1.8D+01
   Bfn.  Coefficient  Atom+Function         Bfn.  Coefficient  Atom+Function  
  ----- ------------  ---------------      ----- ------------  ---------------
     5     20.956925  1 C  s                  6     12.780916  1 C  s          
    84     -5.879511  2 H  s                130     -5.880518  3 H  s          
   176     -5.876147  4 H  s                222     -5.879653  5 H  s          
    83     -2.644062  2 H  s                129     -2.642628  3 H  s          
   175     -2.638367  4 H  s                221     -2.643685  5 H  s          
 
 Vector   14  Occ=0.000000D+00  E= 1.851417D-01
              MO Center= -6.4D-01,  5.0D-01, -9.7D-01, r^2= 1.2D+01
   Bfn.  Coefficient  Atom+Function         Bfn.  Coefficient  Atom+Function  
  ----- ------------  ---------------      ----- ------------  ---------------
    84     18.363316  2 H  s                222    -13.427208  5 H  s          
    18      5.964116  1 C  pz               130     -5.609951  3 H  s          
    17     -5.445829  1 C  py                85      4.595453  2 H  s          
    97      4.219525  2 H  pz                83      3.878049  2 H  s          
    96     -3.583728  2 H  py                16     -3.407960  1 C  px         
 
 Vector   15  Occ=0.000000D+00  E= 1.851485D-01
              MO Center= -6.7D-01,  8.8D-02,  8.5D-01, r^2= 1.2D+01
   Bfn.  Coefficient  Atom+Function         Bfn.  Coefficient  Atom+Function  
  ----- ------------  ---------------      ----- ------------  ---------------
   130     16.744718  3 H  s                222    -14.809253  5 H  s          
    18     -6.226866  1 C  pz                84     -5.857958  2 H  s          
    16     -4.888911  1 C  px               143     -4.351689  3 H  pz         
   131      4.191220  3 H  s                176      3.920550  4 H  s          
    17     -3.758018  1 C  py               223     -3.707232  5 H  s          
 
 Vector   16  Occ=0.000000D+00  E= 1.851580D-01
              MO Center=  1.3D+00, -5.9D-01,  1.3D-01, r^2= 1.1D+01
   Bfn.  Coefficient  Atom+Function         Bfn.  Coefficient  Atom+Function  
  ----- ------------  ---------------      ----- ------------  ---------------
   176     19.888014  4 H  s                130    -10.012073  3 H  s          
    16     -6.415100  1 C  px                84     -6.364097  2 H  s          
    17      5.739370  1 C  py               177      4.986357  4 H  s          
   187     -4.975302  4 H  px               175      4.195843  4 H  s          
   222     -3.522772  5 H  s                188      3.310848  4 H  py         
 
 Vector   17  Occ=0.000000D+00  E= 2.072299D-01
              MO Center=  1.1D-03, -3.9D-05,  4.7D-04, r^2= 8.3D+00
   Bfn.  Coefficient  Atom+Function         Bfn.  Coefficient  Atom+Function  
  ----- ------------  ---------------      ----- ------------  ---------------
   141      2.470239  3 H  px               189      2.465693  4 H  pz         
    95     -2.453095  2 H  px               235     -2.431552  5 H  pz         
    40      2.254588  1 C  d  1              35      1.472717  1 C  d  1       
   138      0.621228  3 H  px                92     -0.616655  2 H  px         
   186      0.619734  4 H  pz               232     -0.610945  5 H  pz         
 
 Vector   18  Occ=0.000000D+00  E= 2.072407D-01
              MO Center=  3.6D-04, -7.7D-04, -9.9D-05, r^2= 8.3D+00
   Bfn.  Coefficient  Atom+Function         Bfn.  Coefficient  Atom+Function  
  ----- ------------  ---------------      ----- ------------  ---------------
   142      2.130803  3 H  py               188     -2.080028  4 H  py         
    41      1.929649  1 C  d  2             234     -1.913235  5 H  py         
    96      1.867140  2 H  py                97      1.590090  2 H  pz         
   233      1.499152  5 H  px               187     -1.328394  4 H  px         
    36      1.262415  1 C  d  2             143     -1.245570  3 H  pz         
 
 Vector   19  Occ=0.000000D+00  E= 2.685941D-01
              MO Center=  3.1D-03, -1.8D-03,  7.9D-04, r^2= 1.1D+01
   Bfn.  Coefficient  Atom+Function         Bfn.  Coefficient  Atom+Function  
  ----- ------------  ---------------      ----- ------------  ---------------
     6      9.984949  1 C  s                  5      9.551034  1 C  s          
     4     -5.799403  1 C  s                176     -3.848747  4 H  s          
    84     -3.828529  2 H  s                130     -3.834657  3 H  s          
   222     -3.830340  5 H  s                 83     -1.801049  2 H  s          
   129     -1.801214  3 H  s                175     -1.804080  4 H  s          
 
 Vector   20  Occ=0.000000D+00  E= 2.715390D-01
              MO Center= -8.1D-01,  2.4D-01, -1.9D-01, r^2= 1.2D+01
   Bfn.  Coefficient  Atom+Function         Bfn.  Coefficient  Atom+Function  
  ----- ------------  ---------------      ----- ------------  ---------------
    17      6.315095  1 C  py               177      5.699503  4 H  s          
    16     -4.929671  1 C  px                20      4.390496  1 C  py         
   131     -3.653036  3 H  s                176      3.595104  4 H  s          
    19     -3.425582  1 C  px               130     -2.313635  3 H  s          
   188     -2.090124  4 H  py                85     -2.066972  2 H  s          
 
 Vector   21  Occ=0.000000D+00  E= 2.715863D-01
              MO Center=  7.5D-01,  6.1D-01, -1.0D-01, r^2= 1.2D+01
   Bfn.  Coefficient  Atom+Function         Bfn.  Coefficient  Atom+Function  
  ----- ------------  ---------------      ----- ------------  ---------------
    16      6.608659  1 C  px               223      6.067536  5 H  s          
    17      4.696799  1 C  py                19      4.597158  1 C  px         
   222      3.840236  5 H  s                 20      3.268400  1 C  py         
   131     -2.685616  3 H  s                233     -2.341223  5 H  px         
   177     -2.173719  4 H  s                187     -2.056216  4 H  px         
 
 Vector   22  Occ=0.000000D+00  E= 2.715974D-01
              MO Center=  5.1D-02, -8.5D-01,  2.9D-01, r^2= 1.2D+01
   Bfn.  Coefficient  Atom+Function         Bfn.  Coefficient  Atom+Function  
  ----- ------------  ---------------      ----- ------------  ---------------
    18      7.874185  1 C  pz                85      5.651136  2 H  s          
    21      5.478207  1 C  pz               131     -4.135208  3 H  s          
    84      3.577268  2 H  s                 97     -2.658444  2 H  pz         
   130     -2.618370  3 H  s                143     -2.583518  3 H  pz         
    17     -2.448585  1 C  py               189     -2.239761  4 H  pz         
 
 Vector   23  Occ=0.000000D+00  E= 2.805857D-01
              MO Center= -2.8D-01,  1.7D-01, -3.3D-02, r^2= 1.1D+01
   Bfn.  Coefficient  Atom+Function         Bfn.  Coefficient  Atom+Function  
  ----- ------------  ---------------      ----- ------------  ---------------
   235      3.576823  5 H  pz               142      2.733324  3 H  py         
    96     -2.458985  2 H  py                95     -2.118679  2 H  px         
    97     -1.964808  2 H  pz               143     -1.585592  3 H  pz         
   141      1.361324  3 H  px               232      1.105674  5 H  pz         
   139      0.845413  3 H  py               234     -0.777895  5 H  py         
 
 Vector   24  Occ=0.000000D+00  E= 2.806047D-01
              MO Center=  9.4D-02, -1.3D-01, -1.9D-01, r^2= 1.1D+01
   Bfn.  Coefficient  Atom+Function         Bfn.  Coefficient  Atom+Function  
  ----- ------------  ---------------      ----- ------------  ---------------
    95      3.040831  2 H  px               188     -2.881437  4 H  py         
   234      2.557430  5 H  py               233     -1.976971  5 H  px         
   189      1.885384  4 H  pz               187     -1.712808  4 H  px         
   142      1.446769  3 H  py                96     -1.128517  2 H  py         
    97     -1.102213  2 H  pz                92      0.939219  2 H  px         
 
 Vector   25  Occ=0.000000D+00  E= 2.806168D-01
              MO Center=  1.9D-01, -4.2D-02,  2.2D-01, r^2= 1.1D+01
   Bfn.  Coefficient  Atom+Function         Bfn.  Coefficient  Atom+Function  
  ----- ------------  ---------------      ----- ------------  ---------------
   141      3.579497  3 H  px               189     -3.390285  4 H  pz         
   234      1.516788  5 H  py               235      1.503671  5 H  pz         
   188     -1.460422  4 H  py               142     -1.287726  3 H  py         
   233     -1.240462  5 H  px                96      1.224662  2 H  py         
   187     -1.183595  4 H  px                95     -1.150201  2 H  px         
 
 Vector   26  Occ=0.000000D+00  E= 2.922376D-01
              MO Center= -1.6D-01,  2.2D-01,  3.6D-02, r^2= 1.0D+01
   Bfn.  Coefficient  Atom+Function         Bfn.  Coefficient  Atom+Function  
  ----- ------------  ---------------      ----- ------------  ---------------
   176      8.691618  4 H  s                 37      5.975051  1 C  d -2       
   222     -5.337632  5 H  s                141     -4.119864  3 H  px         
    95     -4.057934  2 H  px               234      3.404862  5 H  py         
    84     -2.322872  2 H  s                 32      2.117320  1 C  d -2       
   188     -1.923178  4 H  py               175      1.747126  4 H  s          
 
 Vector   27  Occ=0.000000D+00  E= 2.922545D-01
              MO Center=  6.4D-03, -2.3D-01, -1.4D-01, r^2= 1.0D+01
   Bfn.  Coefficient  Atom+Function         Bfn.  Coefficient  Atom+Function  
  ----- ------------  ---------------      ----- ------------  ---------------
   130      8.496531  3 H  s                 38     -6.071422  1 C  d -1       
    84     -5.925955  2 H  s                189     -4.204046  4 H  pz         
   235     -4.218871  5 H  pz                96     -3.252834  2 H  py         
    39     -2.290777  1 C  d  0             142      2.194966  3 H  py         
    33     -2.147778  1 C  d -1             129      1.700714  3 H  s          
 
 Vector   28  Occ=0.000000D+00  E= 2.922759D-01
              MO Center=  1.6D-01,  1.3D-02,  1.1D-01, r^2= 1.0D+01
   Bfn.  Coefficient  Atom+Function         Bfn.  Coefficient  Atom+Function  
  ----- ------------  ---------------      ----- ------------  ---------------
   222      7.278185  5 H  s                 84     -6.517295  2 H  s          
    39      4.898938  1 C  d  0             188      3.227966  4 H  py         
   130     -3.117778  3 H  s                142      3.017214  3 H  py         
    41     -2.934484  1 C  d  2              97      2.671910  2 H  pz         
   233     -2.626228  5 H  px               187      2.571373  4 H  px         
 
 Vector   29  Occ=0.000000D+00  E= 3.329685D-01
              MO Center=  8.7D-05, -1.2D-04, -2.0D-04, r^2= 1.3D+01
   Bfn.  Coefficient  Atom+Function         Bfn.  Coefficient  Atom+Function  
  ----- ------------  ---------------      ----- ------------  ---------------
     5     44.982393  1 C  s                  6     13.993631  1 C  s          
    84    -11.268953  2 H  s                130    -11.266503  3 H  s          
   176    -11.266957  4 H  s                222    -11.268627  5 H  s          
     4      5.415024  1 C  s                 83     -5.337287  2 H  s          
   129     -5.332009  3 H  s                175     -5.322074  4 H  s          
 
 Vector   30  Occ=0.000000D+00  E= 3.924145D-01
              MO Center= -3.9D-03,  7.4D-03,  7.6D-04, r^2= 1.2D+01
   Bfn.  Coefficient  Atom+Function         Bfn.  Coefficient  Atom+Function  
  ----- ------------  ---------------      ----- ------------  ---------------
    41     20.363615  1 C  d  2             142     13.099270  3 H  py         
   188    -12.730943  4 H  py                39     11.831672  1 C  d  0       
   234    -11.570434  5 H  py                96     11.453604  2 H  py         
    97      9.694607  2 H  pz               233      9.279769  5 H  px         
   187     -8.090707  4 H  px               143     -7.556008  3 H  pz         
 
 Vector   31  Occ=0.000000D+00  E= 3.924669D-01
              MO Center= -1.1D-02,  6.8D-04, -6.0D-03, r^2= 1.2D+01
   Bfn.  Coefficient  Atom+Function         Bfn.  Coefficient  Atom+Function  
  ----- ------------  ---------------      ----- ------------  ---------------
    40     23.801169  1 C  d  1             141     15.105098  3 H  px         
    95    -15.009388  2 H  px               189     15.064603  4 H  pz         
   235    -14.868319  5 H  pz                41     -3.246085  1 C  d  2       
   234      2.792943  5 H  py                35      2.633673  1 C  d  1       
    96     -2.068868  2 H  py                37      1.833066  1 C  d -2       
 
 Vector   32  Occ=0.000000D+00  E= 3.932725D-01
              MO Center=  9.5D-01, -4.2D-01,  1.1D-02, r^2= 8.3D+00
   Bfn.  Coefficient  Atom+Function         Bfn.  Coefficient  Atom+Function  
  ----- ------------  ---------------      ----- ------------  ---------------
   176     36.289069  4 H  s                130    -16.589760  3 H  s          
    84    -13.741811  2 H  s                 16    -12.918946  1 C  px         
    17     11.942507  1 C  py               187     -7.390614  4 H  px         
   175      6.013274  4 H  s                222     -5.968839  5 H  s          
   177      4.892133  4 H  s                188      4.875831  4 H  py         
 
 Vector   33  Occ=0.000000D+00  E= 3.933164D-01
              MO Center= -8.1D-01, -2.8D-01, -4.5D-01, r^2= 8.4D+00
   Bfn.  Coefficient  Atom+Function         Bfn.  Coefficient  Atom+Function  
  ----- ------------  ---------------      ----- ------------  ---------------
   222     33.987374  5 H  s                 84    -24.917875  2 H  s          
    17     12.831462  1 C  py                16     10.981785  1 C  px         
   233      6.359559  5 H  px               221      5.632378  5 H  s          
   176     -5.479555  4 H  s                 18     -5.409056  1 C  pz         
   234      5.347130  5 H  py                97     -4.719487  2 H  pz         
 
 Vector   34  Occ=0.000000D+00  E= 3.933329D-01
              MO Center= -1.3D-01,  7.0D-01,  4.5D-01, r^2= 8.7D+00
   Bfn.  Coefficient  Atom+Function         Bfn.  Coefficient  Atom+Function  
  ----- ------------  ---------------      ----- ------------  ---------------
   130     32.801817  3 H  s                 84    -23.539653  2 H  s          
    18    -16.756719  1 C  pz               222    -13.152808  5 H  s          
   143     -7.087611  3 H  pz               129      5.436508  3 H  s          
    16     -5.158235  1 C  px                97     -4.504574  2 H  pz         
   131      4.414298  3 H  s                 83     -3.899565  2 H  s          
 
 Vector   35  Occ=0.000000D+00  E= 5.480661D-01
              MO Center= -1.3D-01,  1.1D-02, -7.1D-02, r^2= 8.1D+00
   Bfn.  Coefficient  Atom+Function         Bfn.  Coefficient  Atom+Function  
  ----- ------------  ---------------      ----- ------------  ---------------
    17     11.730063  1 C  py               175      6.567533  4 H  s          
   129     -5.790266  3 H  s                 14      4.049428  1 C  py         
    16     -3.723861  1 C  px                83     -3.720052  2 H  s          
   234     -3.324113  5 H  py                96     -3.294712  2 H  py         
   142     -3.281661  3 H  py               188     -3.280473  4 H  py         
 

 center of mass
 --------------
 x =  -0.00014828 y =   0.00008327 z =  -0.00003703

 moments of inertia (a.u.)
 ------------------
          11.224341259114          -0.003077910801          -0.000858749710
          -0.003077910801          11.225571783107           0.002337320224
          -0.000858749710           0.002337320224          11.221657683951
 
     Multipole analysis of the density
     ---------------------------------
 
     L   x y z        total         alpha         beta         nuclear
     -   - - -        -----         -----         ----         -------
     0   0 0 0     -0.000000     -5.000000     -5.000000     10.000000
 
     1   1 0 0      0.000132      0.000066      0.000066      0.000000
     1   0 1 0     -0.000052     -0.000026     -0.000026      0.000000
     1   0 0 1      0.000095      0.000047      0.000047      0.000000
 
     2   2 0 0     -6.237280     -5.902577     -5.902577      5.567875
     2   1 1 0      0.001475     -0.000790     -0.000790      0.003054
     2   1 0 1      0.000337     -0.000258     -0.000258      0.000852
     2   0 2 0     -6.237244     -5.901949     -5.901949      5.566654
     2   0 1 1     -0.000789      0.000765      0.000765     -0.002319
     2   0 0 2     -6.235622     -5.903080     -5.903080      5.570538
 
                                NWChem TDDFT Module
                                -------------------
 
 
                                      Methane
 
 
            General Information
            -------------------
           No. of orbitals :   528
            Alpha orbitals :   264
             Beta orbitals :   264
        Alpha frozen cores :     0
         Beta frozen cores :     0
     Alpha frozen virtuals :     0
      Beta frozen virtuals :     0
         Spin multiplicity :     1
    Number of AO functions :   264
        Use of symmetry is : off
      Symmetry adaption is : off
         Schwarz screening : 0.10D-07
 
              XC Information
              --------------
              Hartree-Fock (Exact) Exchange   1.00          
 
             TDDFT Information
             -----------------
          Calculation type : TDHF              
         Wavefunction type : Restricted singlets & triplets
          No. of electrons :    10
           Alpha electrons :     5
            Beta electrons :     5
              No. of roots :    10
          Max subspacesize :  6000
            Max iterations :   100
               Target root :     1
           Target symmetry : none
      Symmetry restriction : off
                 Algorithm : Optimal
        Davidson threshold : 0.10D-03
 
            Memory Information
            ------------------
          Available GA space size is       14679994304 doubles
          Available MA space size is         157279508 doubles
          Length of a trial vector is         1295
          Algorithm : Incore multiple tensor contraction
          Estimated peak GA usage is          36960364 doubles
          Estimated peak MA usage is             71000 doubles
 
   10 smallest eigenvalue differences (eV) 
--------------------------------------------------------
  No. Spin  Occ  Vir  Irrep   E(Occ)    E(Vir)   E(Diff)
--------------------------------------------------------
    1    1    5    6 a        -0.547     0.027    15.623
    2    1    4    6 a        -0.547     0.027    15.631
    3    1    3    6 a        -0.547     0.027    15.633
    4    1    5    7 a        -0.547     0.045    16.104
    5    1    5    8 a        -0.547     0.045    16.104
    6    1    5    9 a        -0.547     0.045    16.104
    7    1    4    7 a        -0.547     0.045    16.112
    8    1    4    8 a        -0.547     0.045    16.112
    9    1    4    9 a        -0.547     0.045    16.112
   10    1    3    7 a        -0.547     0.045    16.114
--------------------------------------------------------

  Entering Davidson iterations
  Restricted singlet excited states

  Iter   NTrls   NConv    DeltaV     DeltaE      Time   
  ----  ------  ------  ---------  ---------  --------- 
    1     10       0     0.75E-01   0.10+100        6.4
    2     30       0     0.54E-01   0.32E-01        6.8
    3     50       0     0.16E-01   0.27E-02        6.8
    4     70       0     0.26E-01   0.44E-02        6.7
    5     90       0     0.22E-01   0.14E-02        6.8
    6    110       0     0.87E-02   0.37E-03        6.8
    7    130       3     0.60E-02   0.85E-04        6.9
    8    144       4     0.23E-02   0.27E-04        6.9
    9    156       9     0.51E-03   0.23E-05        5.9
   10    158      10     0.95E-04   0.88E-07        4.8
  ----  ------  ------  ---------  ---------  --------- 
  Convergence criterion met
 
  Ground state a         -40.216345971506 a.u.
 
  ----------------------------------------------------------------------------
  Root   1 singlet a              0.407768570 a.u.               11.0960 eV 
  ----------------------------------------------------------------------------
     Transition Moments    X  0.54565   Y -0.49211   Z -0.12905
     Transition Moments   XX  0.78001  XY -0.68816  XZ -0.08201
     Transition Moments   YY -0.04686  YZ -0.03534  ZZ -0.72937
     Dipole Oscillator Strength                         0.15130
 
     Occ.    3  a   ---  Virt.    7  a   -0.09260 X
     Occ.    4  a   ---  Virt.    8  a   -0.06190 X
     Occ.    4  a   ---  Virt.    9  a   -0.06698 X
     Occ.    5  a   ---  Virt.    6  a    0.79360 X
     Occ.    5  a   ---  Virt.    8  a    0.07034 X
     Occ.    5  a   ---  Virt.    9  a   -0.15579 X
     Occ.    5  a   ---  Virt.   10  a    0.08097 X
     Occ.    5  a   ---  Virt.   13  a   -0.49616 X
     Occ.    5  a   ---  Virt.   16  a    0.09774 X
     Occ.    5  a   ---  Virt.   19  a    0.06469 X
     Occ.    5  a   ---  Virt.   29  a    0.16476 X
  ----------------------------------------------------------------------------
  Root   2 singlet a              0.408049785 a.u.               11.1036 eV 
  ----------------------------------------------------------------------------
     Transition Moments    X -0.49418   Y -0.46711   Z -0.30669
     Transition Moments   XX  0.58776  XY  0.71602  XZ  0.05332
     Transition Moments   YY  0.12068  YZ -0.32639  ZZ -0.70908
     Dipole Oscillator Strength                         0.15138
 
     Occ.    3  a   ---  Virt.    8  a   -0.10466 X
     Occ.    3  a   ---  Virt.   11  a    0.05451 X
     Occ.    3  a   ---  Virt.   15  a   -0.06861 X
     Occ.    4  a   ---  Virt.    6  a   -0.79232 X
     Occ.    4  a   ---  Virt.    7  a   -0.11214 X
     Occ.    4  a   ---  Virt.    8  a    0.10035 X
     Occ.    4  a   ---  Virt.    9  a   -0.05796 X
     Occ.    4  a   ---  Virt.   11  a   -0.05593 X
     Occ.    4  a   ---  Virt.   12  a    0.05730 X
     Occ.    4  a   ---  Virt.   13  a    0.49547 X
     Occ.    4  a   ---  Virt.   14  a    0.08504 X
     Occ.    4  a   ---  Virt.   19  a   -0.06442 X
     Occ.    4  a   ---  Virt.   29  a   -0.16454 X
     Occ.    5  a   ---  Virt.    8  a    0.06308 X
     Occ.    5  a   ---  Virt.    9  a    0.06727 X
  ----------------------------------------------------------------------------
  Root   3 singlet a              0.408101968 a.u.               11.1050 eV 
  ----------------------------------------------------------------------------
     Transition Moments    X -0.12149   Y -0.30992   Z  0.66766
     Transition Moments   XX  0.32009  XY  0.23373  XZ -0.03183
     Transition Moments   YY -0.14486  YZ  0.95976  ZZ -0.17508
     Dipole Oscillator Strength                         0.15143
 
     Occ.    3  a   ---  Virt.    6  a    0.79230 X
     Occ.    3  a   ---  Virt.    7  a   -0.12146 X
     Occ.    3  a   ---  Virt.    9  a    0.09742 X
     Occ.    3  a   ---  Virt.   12  a    0.06604 X
     Occ.    3  a   ---  Virt.   13  a   -0.49549 X
     Occ.    3  a   ---  Virt.   14  a    0.07984 X
     Occ.    3  a   ---  Virt.   16  a   -0.05759 X
     Occ.    3  a   ---  Virt.   19  a    0.06439 X
     Occ.    3  a   ---  Virt.   29  a    0.16454 X
     Occ.    4  a   ---  Virt.    8  a    0.10792 X
     Occ.    4  a   ---  Virt.   11  a   -0.05642 X
     Occ.    4  a   ---  Virt.   15  a    0.07026 X
     Occ.    5  a   ---  Virt.    7  a   -0.09388 X
  ----------------------------------------------------------------------------
  Root   4 singlet a              0.455846241 a.u.               12.4042 eV 
  ----------------------------------------------------------------------------
     Transition Moments    X  0.07992   Y -0.04372   Z -0.00907
     Transition Moments   XX  0.67402  XY -0.92164  XZ -0.10915
     Transition Moments   YY -0.04950  YZ  0.01366  ZZ -0.56162
     Dipole Oscillator Strength                         0.00255
 
     Occ.    3  a   ---  Virt.    7  a   -0.28853 X
     Occ.    3  a   ---  Virt.   12  a    0.10742 X
     Occ.    3  a   ---  Virt.   14  a    0.10173 X
     Occ.    4  a   ---  Virt.    6  a   -0.06750 X
     Occ.    4  a   ---  Virt.    8  a   -0.32908 X
     Occ.    4  a   ---  Virt.    9  a   -0.18443 X
     Occ.    4  a   ---  Virt.   10  a    0.07050 X
     Occ.    4  a   ---  Virt.   11  a    0.12108 X
     Occ.    4  a   ---  Virt.   14  a   -0.05866 X
     Occ.    4  a   ---  Virt.   15  a   -0.11354 X
     Occ.    4  a   ---  Virt.   16  a    0.06782 X
     Occ.    5  a   ---  Virt.    6  a   -0.25505 X
     Occ.    5  a   ---  Virt.    8  a    0.21156 X
     Occ.    5  a   ---  Virt.    9  a   -0.64153 X
     Occ.    5  a   ---  Virt.   10  a    0.23382 X
     Occ.    5  a   ---  Virt.   11  a   -0.09060 X
     Occ.    5  a   ---  Virt.   13  a    0.11490 X
     Occ.    5  a   ---  Virt.   15  a    0.07425 X
     Occ.    5  a   ---  Virt.   16  a    0.24153 X
     Occ.    5  a   ---  Virt.   20  a   -0.08157 X
     Occ.    5  a   ---  Virt.   32  a   -0.08982 X
  ----------------------------------------------------------------------------
  Root   5 singlet a              0.455972834 a.u.               12.4077 eV 
  ----------------------------------------------------------------------------
     Transition Moments    X -0.02219   Y -0.02358   Z -0.08427
     Transition Moments   XX  0.36053  XY  0.25913  XZ  0.11849
     Transition Moments   YY  0.14752  YZ -0.97391  ZZ -0.52299
     Dipole Oscillator Strength                         0.00248
 
     Occ.    3  a   ---  Virt.    6  a    0.19110 X
     Occ.    3  a   ---  Virt.    7  a    0.16433 X
     Occ.    3  a   ---  Virt.    8  a   -0.34682 X
     Occ.    3  a   ---  Virt.    9  a   -0.32703 X
     Occ.    3  a   ---  Virt.   10  a    0.12358 X
     Occ.    3  a   ---  Virt.   11  a    0.11751 X
     Occ.    3  a   ---  Virt.   12  a   -0.06185 X
     Occ.    3  a   ---  Virt.   13  a   -0.08626 X
     Occ.    3  a   ---  Virt.   14  a   -0.10952 X
     Occ.    3  a   ---  Virt.   15  a   -0.10825 X
     Occ.    3  a   ---  Virt.   16  a    0.11834 X
     Occ.    3  a   ---  Virt.   20  a   -0.05044 X
     Occ.    3  a   ---  Virt.   33  a   -0.05241 X
     Occ.    4  a   ---  Virt.    6  a    0.17704 X
     Occ.    4  a   ---  Virt.    7  a   -0.37471 X
     Occ.    4  a   ---  Virt.    9  a   -0.24479 X
     Occ.    4  a   ---  Virt.   10  a    0.09786 X
     Occ.    4  a   ---  Virt.   12  a    0.13044 X
     Occ.    4  a   ---  Virt.   13  a   -0.07987 X
     Occ.    4  a   ---  Virt.   14  a    0.12763 X
     Occ.    4  a   ---  Virt.   15  a   -0.06382 X
     Occ.    4  a   ---  Virt.   16  a    0.09566 X
     Occ.    5  a   ---  Virt.    7  a    0.33994 X
     Occ.    5  a   ---  Virt.    8  a    0.30912 X
     Occ.    5  a   ---  Virt.    9  a    0.13683 X
     Occ.    5  a   ---  Virt.   10  a   -0.06399 X
     Occ.    5  a   ---  Virt.   11  a   -0.11853 X
     Occ.    5  a   ---  Virt.   12  a   -0.13607 X
     Occ.    5  a   ---  Virt.   14  a   -0.07617 X
     Occ.    5  a   ---  Virt.   15  a    0.14524 X
     Occ.    5  a   ---  Virt.   16  a   -0.05065 X
     Occ.    5  a   ---  Virt.   22  a    0.05830 X
     Occ.    5  a   ---  Virt.   34  a   -0.06308 X
  ----------------------------------------------------------------------------
  Root   6 singlet a              0.456025497 a.u.               12.4091 eV 
  ----------------------------------------------------------------------------
     Transition Moments    X -0.03776   Y -0.07643   Z  0.03106
     Transition Moments   XX  0.87018  XY  0.56268  XZ -0.02511
     Transition Moments   YY -0.10143  YZ  0.50350  ZZ -0.76202
     Dipole Oscillator Strength                         0.00250
 
     Occ.    3  a   ---  Virt.    6  a   -0.18206 X
     Occ.    3  a   ---  Virt.    7  a   -0.46902 X
     Occ.    3  a   ---  Virt.    8  a   -0.19396 X
     Occ.    3  a   ---  Virt.    9  a    0.19433 X
     Occ.    3  a   ---  Virt.   10  a   -0.06399 X
     Occ.    3  a   ---  Virt.   11  a    0.06993 X
     Occ.    3  a   ---  Virt.   12  a    0.17500 X
     Occ.    3  a   ---  Virt.   13  a    0.08206 X
     Occ.    3  a   ---  Virt.   14  a    0.14719 X
     Occ.    3  a   ---  Virt.   15  a   -0.12868 X
     Occ.    3  a   ---  Virt.   16  a   -0.06816 X
     Occ.    3  a   ---  Virt.   22  a   -0.06821 X
     Occ.    3  a   ---  Virt.   34  a    0.06531 X
     Occ.    4  a   ---  Virt.    6  a    0.18365 X
     Occ.    4  a   ---  Virt.    7  a   -0.19937 X
     Occ.    4  a   ---  Virt.    8  a    0.49543 X
     Occ.    4  a   ---  Virt.    9  a   -0.15665 X
     Occ.    4  a   ---  Virt.   10  a    0.05599 X
     Occ.    4  a   ---  Virt.   11  a   -0.18653 X
     Occ.    4  a   ---  Virt.   12  a    0.06713 X
     Occ.    4  a   ---  Virt.   13  a   -0.08274 X
     Occ.    4  a   ---  Virt.   14  a    0.13135 X
     Occ.    4  a   ---  Virt.   15  a    0.15104 X
     Occ.    4  a   ---  Virt.   16  a    0.06421 X
     Occ.    4  a   ---  Virt.   21  a    0.07400 X
     Occ.    4  a   ---  Virt.   33  a    0.06920 X
     Occ.    5  a   ---  Virt.    6  a   -0.05283 X
     Occ.    5  a   ---  Virt.    7  a   -0.22834 X
     Occ.    5  a   ---  Virt.    8  a    0.16690 X
     Occ.    5  a   ---  Virt.   11  a   -0.07111 X
     Occ.    5  a   ---  Virt.   12  a    0.09244 X
     Occ.    5  a   ---  Virt.   14  a    0.09519 X
  ----------------------------------------------------------------------------
  Root   7 singlet a              0.457130818 a.u.               12.4392 eV 
  ----------------------------------------------------------------------------
     Transition Moments    X  0.00298   Y  0.00504   Z -0.00017
     Transition Moments   XX  0.60043  XY  0.06232  XZ -0.19409
     Transition Moments   YY -1.32907  YZ -0.18941  ZZ  0.70635
     Dipole Oscillator Strength                         0.00001
 
     Occ.    3  a   ---  Virt.    7  a    0.28041 X
     Occ.    3  a   ---  Virt.    8  a    0.15728 X
     Occ.    3  a   ---  Virt.    9  a    0.22543 X
     Occ.    3  a   ---  Virt.   10  a   -0.16028 X
     Occ.    3  a   ---  Virt.   11  a   -0.08685 X
     Occ.    3  a   ---  Virt.   12  a   -0.17420 X
     Occ.    3  a   ---  Virt.   15  a    0.05132 X
     Occ.    3  a   ---  Virt.   20  a    0.06098 X
     Occ.    3  a   ---  Virt.   22  a    0.07032 X
     Occ.    4  a   ---  Virt.    7  a    0.14583 X
     Occ.    4  a   ---  Virt.    8  a   -0.12846 X
     Occ.    4  a   ---  Virt.    9  a   -0.36984 X
     Occ.    4  a   ---  Virt.   10  a    0.24600 X
     Occ.    4  a   ---  Virt.   11  a    0.06645 X
     Occ.    4  a   ---  Virt.   12  a   -0.09774 X
     Occ.    4  a   ---  Virt.   16  a    0.06601 X
     Occ.    4  a   ---  Virt.   20  a   -0.09443 X
     Occ.    5  a   ---  Virt.    7  a   -0.33181 X
     Occ.    5  a   ---  Virt.    8  a    0.42610 X
     Occ.    5  a   ---  Virt.    9  a    0.16281 X
     Occ.    5  a   ---  Virt.   10  a   -0.11151 X
     Occ.    5  a   ---  Virt.   11  a   -0.28202 X
     Occ.    5  a   ---  Virt.   12  a    0.21566 X
     Occ.    5  a   ---  Virt.   14  a    0.08667 X
     Occ.    5  a   ---  Virt.   15  a    0.05417 X
     Occ.    5  a   ---  Virt.   20  a    0.05481 X
     Occ.    5  a   ---  Virt.   21  a    0.11409 X
     Occ.    5  a   ---  Virt.   22  a   -0.05541 X
  ----------------------------------------------------------------------------
  Root   8 singlet a              0.457199025 a.u.               12.4410 eV 
  ----------------------------------------------------------------------------
     Transition Moments    X -0.00176   Y -0.00038   Z -0.00638
     Transition Moments   XX -0.14943  XY  0.10110  XZ -1.15189
     Transition Moments   YY  0.25594  YZ -0.09059  ZZ -0.09887
     Dipole Oscillator Strength                         0.00001
 
     Occ.    3  a   ---  Virt.    7  a    0.18449 X
     Occ.    3  a   ---  Virt.    8  a   -0.37617 X
     Occ.    3  a   ---  Virt.    9  a    0.26477 X
     Occ.    3  a   ---  Virt.   10  a   -0.17389 X
     Occ.    3  a   ---  Virt.   11  a    0.25057 X
     Occ.    3  a   ---  Virt.   12  a   -0.10257 X
     Occ.    3  a   ---  Virt.   14  a   -0.05995 X
     Occ.    3  a   ---  Virt.   15  a   -0.05798 X
     Occ.    3  a   ---  Virt.   20  a    0.05279 X
     Occ.    3  a   ---  Virt.   21  a   -0.10577 X
     Occ.    4  a   ---  Virt.    7  a   -0.37712 X
     Occ.    4  a   ---  Virt.    8  a   -0.27572 X
     Occ.    4  a   ---  Virt.    9  a    0.13438 X
     Occ.    4  a   ---  Virt.   10  a   -0.07449 X
     Occ.    4  a   ---  Virt.   11  a    0.17710 X
     Occ.    4  a   ---  Virt.   12  a    0.24722 X
     Occ.    4  a   ---  Virt.   14  a    0.05507 X
     Occ.    4  a   ---  Virt.   15  a   -0.07594 X
     Occ.    4  a   ---  Virt.   22  a   -0.10379 X
     Occ.    5  a   ---  Virt.    7  a   -0.34508 X
     Occ.    5  a   ---  Virt.    8  a   -0.19354 X
     Occ.    5  a   ---  Virt.    9  a   -0.09227 X
     Occ.    5  a   ---  Virt.   10  a    0.07843 X
     Occ.    5  a   ---  Virt.   11  a    0.12199 X
     Occ.    5  a   ---  Virt.   12  a    0.23173 X
     Occ.    5  a   ---  Virt.   15  a   -0.05327 X
     Occ.    5  a   ---  Virt.   22  a   -0.09389 X
  ----------------------------------------------------------------------------
  Root   9 singlet a              0.458543082 a.u.               12.4776 eV 
  ----------------------------------------------------------------------------
     Transition Moments    X  0.00046   Y -0.00293   Z -0.00246
     Transition Moments   XX  0.08513  XY  0.00027  XZ  0.02849
     Transition Moments   YY -0.10555  YZ -0.03079  ZZ  0.01915
     Dipole Oscillator Strength                         0.00000
 
     Occ.    3  a   ---  Virt.    9  a   -0.05027 X
     Occ.    4  a   ---  Virt.    9  a   -0.61463 X
     Occ.    4  a   ---  Virt.   10  a    0.38791 X
     Occ.    4  a   ---  Virt.   16  a    0.12509 X
     Occ.    4  a   ---  Virt.   18  a   -0.05638 X
     Occ.    4  a   ---  Virt.   20  a   -0.14289 X
     Occ.    4  a   ---  Virt.   32  a   -0.06140 X
     Occ.    5  a   ---  Virt.    8  a   -0.51833 X
     Occ.    5  a   ---  Virt.   11  a    0.33232 X
     Occ.    5  a   ---  Virt.   15  a   -0.09630 X
     Occ.    5  a   ---  Virt.   18  a   -0.05523 X
     Occ.    5  a   ---  Virt.   21  a   -0.11863 X
  ----------------------------------------------------------------------------
  Root  10 singlet a              0.458574647 a.u.               12.4785 eV 
  ----------------------------------------------------------------------------
     Transition Moments    X -0.00053   Y -0.00080   Z  0.00440
     Transition Moments   XX  0.03454  XY  0.01974  XZ -0.10062
     Transition Moments   YY -0.07733  YZ  0.02828  ZZ  0.04231
     Dipole Oscillator Strength                         0.00001
 
     Occ.    3  a   ---  Virt.    9  a    0.62148 X
     Occ.    3  a   ---  Virt.   10  a   -0.39194 X
     Occ.    3  a   ---  Virt.   16  a   -0.12709 X
     Occ.    3  a   ---  Virt.   18  a   -0.05761 X
     Occ.    3  a   ---  Virt.   20  a    0.14375 X
     Occ.    3  a   ---  Virt.   32  a    0.06214 X
     Occ.    4  a   ---  Virt.    9  a   -0.06017 X
     Occ.    5  a   ---  Virt.    7  a    0.50785 X
     Occ.    5  a   ---  Virt.   12  a   -0.32652 X
     Occ.    5  a   ---  Virt.   14  a   -0.09412 X
     Occ.    5  a   ---  Virt.   17  a   -0.06586 X
     Occ.    5  a   ---  Virt.   22  a    0.11869 X
 
              Target root =      1
          Target symmetry = none
      Ground state energy =    -40.216345971506
        Excitation energy =      0.407768569602
     Excited state energy =    -39.808577401904
 
 
   10 smallest eigenvalue differences (eV) 
--------------------------------------------------------
  No. Spin  Occ  Vir  Irrep   E(Occ)    E(Vir)   E(Diff)
--------------------------------------------------------
    1    1    5    6 a        -0.547     0.027    15.623
    2    1    4    6 a        -0.547     0.027    15.631
    3    1    3    6 a        -0.547     0.027    15.633
    4    1    5    7 a        -0.547     0.045    16.104
    5    1    5    8 a        -0.547     0.045    16.104
    6    1    5    9 a        -0.547     0.045    16.104
    7    1    4    7 a        -0.547     0.045    16.112
    8    1    4    8 a        -0.547     0.045    16.112
    9    1    4    9 a        -0.547     0.045    16.112
   10    1    3    7 a        -0.547     0.045    16.114
--------------------------------------------------------

  Entering Davidson iterations
  Restricted triplet excited states

  Iter   NTrls   NConv    DeltaV     DeltaE      Time   
  ----  ------  ------  ---------  ---------  --------- 
    1     10       0     0.68E-01   0.10+100        6.3
    2     30       0     0.85E-01   0.52E-01        6.8
    3     50       0     0.59E-01   0.15E-01        6.8
    4     70       0     0.29E-01   0.78E-02        6.8
    5     90       0     0.14E-01   0.85E-03        6.7
    6    110       0     0.55E-02   0.97E-04        6.8
    7    130       0     0.57E-02   0.51E-04        6.8
    8    150       3     0.36E-02   0.37E-04        6.8
    9    164       5     0.87E-03   0.60E-05        7.0
   10    174       9     0.15E-03   0.24E-06        6.5
   11    176      10     0.89E-04   0.60E-08        4.9
  ----  ------  ------  ---------  ---------  --------- 
  Convergence criterion met
 
  Ground state a         -40.216345971506 a.u.
 
  ----------------------------------------------------------------------------
  Root   1 triplet a              0.375811747 a.u.               10.2264 eV 
  ----------------------------------------------------------------------------
     Transition Moments                    Spin forbidden
     Oscillator Strength                   Spin forbidden
 
     Occ.    2  a   ---  Virt.   16  a    0.05915 X
     Occ.    2  a   ---  Virt.   32  a   -0.05791 X
     Occ.    3  a   ---  Virt.    7  a   -0.09344 X
     Occ.    3  a   ---  Virt.   14  a    0.10937 X
     Occ.    3  a   ---  Virt.   15  a   -0.07167 X
     Occ.    3  a   ---  Virt.   34  a    0.08329 X
     Occ.    4  a   ---  Virt.    8  a   -0.06639 X
     Occ.    4  a   ---  Virt.    9  a   -0.06576 X
     Occ.    4  a   ---  Virt.   15  a   -0.09121 X
     Occ.    4  a   ---  Virt.   16  a    0.08814 X
     Occ.    4  a   ---  Virt.   32  a   -0.06327 X
     Occ.    4  a   ---  Virt.   34  a    0.05683 X
     Occ.    5  a   ---  Virt.    6  a    0.62387 X
     Occ.    5  a   ---  Virt.    8  a    0.06874 X
     Occ.    5  a   ---  Virt.    9  a   -0.16395 X
     Occ.    5  a   ---  Virt.   13  a   -0.53605 X
     Occ.    5  a   ---  Virt.   15  a    0.08895 X
     Occ.    5  a   ---  Virt.   16  a    0.22620 X
     Occ.    5  a   ---  Virt.   19  a    0.12509 X
     Occ.    5  a   ---  Virt.   29  a    0.25816 X
     Occ.    5  a   ---  Virt.   32  a   -0.16767 X
     Occ.    5  a   ---  Virt.   40  a   -0.10316 X
     Occ.    5  a   ---  Virt.   46  a    0.05579 X
     Occ.    5  a   ---  Virt.   50  a   -0.08248 X
  ----------------------------------------------------------------------------
  Root   2 triplet a              0.376078148 a.u.               10.2336 eV 
  ----------------------------------------------------------------------------
     Transition Moments                    Spin forbidden
     Oscillator Strength                   Spin forbidden
 
     Occ.    2  a   ---  Virt.   15  a    0.05433 X
     Occ.    3  a   ---  Virt.    8  a    0.10746 X
     Occ.    3  a   ---  Virt.   15  a    0.15867 X
     Occ.    3  a   ---  Virt.   34  a   -0.10768 X
     Occ.    4  a   ---  Virt.    6  a    0.62344 X
     Occ.    4  a   ---  Virt.    7  a    0.11435 X
     Occ.    4  a   ---  Virt.    8  a   -0.10312 X
     Occ.    4  a   ---  Virt.    9  a    0.06203 X
     Occ.    4  a   ---  Virt.   13  a   -0.53583 X
     Occ.    4  a   ---  Virt.   14  a   -0.19078 X
     Occ.    4  a   ---  Virt.   15  a   -0.07960 X
     Occ.    4  a   ---  Virt.   16  a   -0.09369 X
     Occ.    4  a   ---  Virt.   19  a    0.12498 X
     Occ.    4  a   ---  Virt.   29  a    0.25808 X
     Occ.    4  a   ---  Virt.   32  a    0.06306 X
     Occ.    4  a   ---  Virt.   33  a   -0.15393 X
     Occ.    4  a   ---  Virt.   40  a   -0.10309 X
     Occ.    4  a   ---  Virt.   50  a   -0.08275 X
     Occ.    5  a   ---  Virt.    8  a   -0.06698 X
     Occ.    5  a   ---  Virt.    9  a   -0.06086 X
     Occ.    5  a   ---  Virt.   15  a   -0.09603 X
     Occ.    5  a   ---  Virt.   16  a    0.08165 X
     Occ.    5  a   ---  Virt.   32  a   -0.05785 X
     Occ.    5  a   ---  Virt.   34  a    0.06367 X
  ----------------------------------------------------------------------------
  Root   3 triplet a              0.376119185 a.u.               10.2347 eV 
  ----------------------------------------------------------------------------
     Transition Moments                    Spin forbidden
     Oscillator Strength                   Spin forbidden
 
     Occ.    2  a   ---  Virt.   14  a   -0.05440 X
     Occ.    3  a   ---  Virt.    6  a    0.62440 X
     Occ.    3  a   ---  Virt.    7  a   -0.12229 X
     Occ.    3  a   ---  Virt.    9  a    0.10087 X
     Occ.    3  a   ---  Virt.   13  a   -0.53671 X
     Occ.    3  a   ---  Virt.   14  a    0.17877 X
     Occ.    3  a   ---  Virt.   16  a   -0.13123 X
     Occ.    3  a   ---  Virt.   19  a    0.12519 X
     Occ.    3  a   ---  Virt.   29  a    0.25853 X
     Occ.    3  a   ---  Virt.   32  a    0.10374 X
     Occ.    3  a   ---  Virt.   33  a    0.11156 X
     Occ.    3  a   ---  Virt.   34  a    0.05850 X
     Occ.    3  a   ---  Virt.   40  a   -0.10328 X
     Occ.    3  a   ---  Virt.   50  a   -0.08295 X
     Occ.    4  a   ---  Virt.    8  a    0.10793 X
     Occ.    4  a   ---  Virt.   15  a    0.15662 X
     Occ.    4  a   ---  Virt.   33  a    0.05109 X
     Occ.    4  a   ---  Virt.   34  a   -0.10381 X
     Occ.    5  a   ---  Virt.    7  a   -0.09670 X
     Occ.    5  a   ---  Virt.   14  a    0.11053 X
     Occ.    5  a   ---  Virt.   15  a   -0.08084 X
     Occ.    5  a   ---  Virt.   34  a    0.08967 X
  ----------------------------------------------------------------------------
  Root   4 triplet a              0.394309872 a.u.               10.7297 eV 
  ----------------------------------------------------------------------------
     Transition Moments                    Spin forbidden
     Oscillator Strength                   Spin forbidden
 
     Occ.    2  a   ---  Virt.    6  a   -0.08003 X
     Occ.    2  a   ---  Virt.   13  a    0.11431 X
     Occ.    2  a   ---  Virt.   19  a   -0.06140 X
     Occ.    2  a   ---  Virt.   29  a   -0.09634 X
     Occ.    2  a   ---  Virt.   40  a    0.08122 X
     Occ.    3  a   ---  Virt.    7  a   -0.28013 X
     Occ.    3  a   ---  Virt.   12  a    0.08002 X
     Occ.    3  a   ---  Virt.   14  a    0.33656 X
     Occ.    3  a   ---  Virt.   15  a   -0.15315 X
     Occ.    3  a   ---  Virt.   33  a    0.17913 X
     Occ.    3  a   ---  Virt.   34  a    0.21705 X
     Occ.    3  a   ---  Virt.   44  a    0.07328 X
     Occ.    3  a   ---  Virt.   45  a   -0.06729 X
     Occ.    3  a   ---  Virt.   53  a    0.08522 X
     Occ.    4  a   ---  Virt.    8  a   -0.28035 X
     Occ.    4  a   ---  Virt.   11  a    0.07983 X
     Occ.    4  a   ---  Virt.   14  a   -0.15318 X
     Occ.    4  a   ---  Virt.   15  a   -0.33678 X
     Occ.    4  a   ---  Virt.   33  a   -0.21762 X
     Occ.    4  a   ---  Virt.   34  a    0.17910 X
     Occ.    4  a   ---  Virt.   44  a   -0.06486 X
     Occ.    4  a   ---  Virt.   45  a   -0.07061 X
     Occ.    4  a   ---  Virt.   52  a    0.08524 X
     Occ.    5  a   ---  Virt.    9  a    0.28156 X
     Occ.    5  a   ---  Virt.   10  a   -0.07936 X
     Occ.    5  a   ---  Virt.   16  a   -0.37024 X
     Occ.    5  a   ---  Virt.   32  a    0.28171 X
     Occ.    5  a   ---  Virt.   46  a   -0.09578 X
     Occ.    5  a   ---  Virt.   51  a   -0.08633 X
  ----------------------------------------------------------------------------
  Root   5 triplet a              0.447834217 a.u.               12.1862 eV 
  ----------------------------------------------------------------------------
     Transition Moments                    Spin forbidden
     Oscillator Strength                   Spin forbidden
 
     Occ.    3  a   ---  Virt.    7  a    0.25065 X
     Occ.    3  a   ---  Virt.   12  a   -0.06018 X
     Occ.    3  a   ---  Virt.   14  a   -0.15653 X
     Occ.    3  a   ---  Virt.   15  a    0.07388 X
     Occ.    3  a   ---  Virt.   33  a   -0.06125 X
     Occ.    3  a   ---  Virt.   34  a   -0.07661 X
     Occ.    4  a   ---  Virt.    6  a    0.09104 X
     Occ.    4  a   ---  Virt.    8  a    0.25685 X
     Occ.    4  a   ---  Virt.    9  a    0.16836 X
     Occ.    4  a   ---  Virt.   11  a   -0.06052 X
     Occ.    4  a   ---  Virt.   14  a    0.07427 X
     Occ.    4  a   ---  Virt.   15  a    0.16465 X
     Occ.    4  a   ---  Virt.   16  a   -0.11192 X
     Occ.    4  a   ---  Virt.   32  a    0.06164 X
     Occ.    4  a   ---  Virt.   33  a    0.07569 X
     Occ.    4  a   ---  Virt.   34  a   -0.06803 X
     Occ.    5  a   ---  Virt.    6  a    0.43632 X
     Occ.    5  a   ---  Virt.    8  a   -0.17955 X
     Occ.    5  a   ---  Virt.    9  a    0.50857 X
     Occ.    5  a   ---  Virt.   10  a   -0.12036 X
     Occ.    5  a   ---  Virt.   13  a   -0.16079 X
     Occ.    5  a   ---  Virt.   15  a   -0.11626 X
     Occ.    5  a   ---  Virt.   16  a   -0.35052 X
     Occ.    5  a   ---  Virt.   32  a    0.19698 X
     Occ.    5  a   ---  Virt.   46  a   -0.05547 X
     Occ.    5  a   ---  Virt.   51  a   -0.05144 X
  ----------------------------------------------------------------------------
  Root   6 triplet a              0.448000889 a.u.               12.1907 eV 
  ----------------------------------------------------------------------------
     Transition Moments                    Spin forbidden
     Oscillator Strength                   Spin forbidden
 
     Occ.    3  a   ---  Virt.    6  a    0.28230 X
     Occ.    3  a   ---  Virt.    7  a    0.09917 X
     Occ.    3  a   ---  Virt.    8  a   -0.31585 X
     Occ.    3  a   ---  Virt.    9  a   -0.24812 X
     Occ.    3  a   ---  Virt.   10  a    0.06216 X
     Occ.    3  a   ---  Virt.   11  a    0.07240 X
     Occ.    3  a   ---  Virt.   13  a   -0.10476 X
     Occ.    3  a   ---  Virt.   14  a   -0.14406 X
     Occ.    3  a   ---  Virt.   15  a   -0.18536 X
     Occ.    3  a   ---  Virt.   16  a    0.16271 X
     Occ.    3  a   ---  Virt.   32  a   -0.09165 X
     Occ.    3  a   ---  Virt.   33  a   -0.11447 X
     Occ.    3  a   ---  Virt.   34  a    0.06258 X
     Occ.    4  a   ---  Virt.    6  a    0.33857 X
     Occ.    4  a   ---  Virt.    7  a   -0.33592 X
     Occ.    4  a   ---  Virt.    9  a   -0.20434 X
     Occ.    4  a   ---  Virt.   10  a    0.05274 X
     Occ.    4  a   ---  Virt.   12  a    0.07796 X
     Occ.    4  a   ---  Virt.   13  a   -0.12539 X
     Occ.    4  a   ---  Virt.   14  a    0.21796 X
     Occ.    4  a   ---  Virt.   15  a   -0.06360 X
     Occ.    4  a   ---  Virt.   16  a    0.14775 X
     Occ.    4  a   ---  Virt.   32  a   -0.07456 X
     Occ.    4  a   ---  Virt.   33  a    0.09647 X
     Occ.    4  a   ---  Virt.   34  a    0.08937 X
     Occ.    5  a   ---  Virt.    6  a   -0.06381 X
     Occ.    5  a   ---  Virt.    7  a    0.23301 X
     Occ.    5  a   ---  Virt.    8  a    0.23644 X
     Occ.    5  a   ---  Virt.    9  a    0.12568 X
     Occ.    5  a   ---  Virt.   11  a   -0.05750 X
     Occ.    5  a   ---  Virt.   12  a   -0.05910 X
     Occ.    5  a   ---  Virt.   14  a   -0.09130 X
     Occ.    5  a   ---  Virt.   15  a    0.20282 X
     Occ.    5  a   ---  Virt.   16  a   -0.08589 X
     Occ.    5  a   ---  Virt.   34  a   -0.12629 X
  ----------------------------------------------------------------------------
  Root   7 triplet a              0.448044840 a.u.               12.1919 eV 
  ----------------------------------------------------------------------------
     Transition Moments                    Spin forbidden
     Oscillator Strength                   Spin forbidden
 
     Occ.    3  a   ---  Virt.    6  a   -0.34457 X
     Occ.    3  a   ---  Virt.    7  a   -0.39663 X
     Occ.    3  a   ---  Virt.    8  a   -0.12287 X
     Occ.    3  a   ---  Virt.    9  a    0.18903 X
     Occ.    3  a   ---  Virt.   12  a    0.09776 X
     Occ.    3  a   ---  Virt.   13  a    0.12760 X
     Occ.    3  a   ---  Virt.   14  a    0.23403 X
     Occ.    3  a   ---  Virt.   15  a   -0.16895 X
     Occ.    3  a   ---  Virt.   16  a   -0.12249 X
     Occ.    3  a   ---  Virt.   32  a    0.07864 X
     Occ.    3  a   ---  Virt.   33  a    0.07347 X
     Occ.    3  a   ---  Virt.   34  a    0.13798 X
     Occ.    4  a   ---  Virt.    6  a    0.27489 X
     Occ.    4  a   ---  Virt.    7  a   -0.12417 X
     Occ.    4  a   ---  Virt.    8  a    0.41764 X
     Occ.    4  a   ---  Virt.    9  a   -0.09033 X
     Occ.    4  a   ---  Virt.   11  a   -0.10252 X
     Occ.    4  a   ---  Virt.   13  a   -0.10161 X
     Occ.    4  a   ---  Virt.   14  a    0.17308 X
     Occ.    4  a   ---  Virt.   15  a    0.24077 X
     Occ.    4  a   ---  Virt.   16  a    0.07143 X
     Occ.    4  a   ---  Virt.   33  a    0.14701 X
     Occ.    4  a   ---  Virt.   34  a   -0.07613 X
     Occ.    5  a   ---  Virt.    6  a   -0.06537 X
     Occ.    5  a   ---  Virt.    7  a   -0.19636 X
     Occ.    5  a   ---  Virt.    8  a    0.08387 X
     Occ.    5  a   ---  Virt.   12  a    0.05013 X
     Occ.    5  a   ---  Virt.   14  a    0.14279 X
     Occ.    5  a   ---  Virt.   33  a    0.07347 X
  ----------------------------------------------------------------------------
  Root   8 triplet a              0.452446344 a.u.               12.3117 eV 
  ----------------------------------------------------------------------------
     Transition Moments                    Spin forbidden
     Oscillator Strength                   Spin forbidden
 
     Occ.    3  a   ---  Virt.    7  a   -0.25089 X
     Occ.    3  a   ---  Virt.    8  a   -0.15706 X
     Occ.    3  a   ---  Virt.    9  a   -0.23581 X
     Occ.    3  a   ---  Virt.   10  a    0.16470 X
     Occ.    3  a   ---  Virt.   11  a    0.09020 X
     Occ.    3  a   ---  Virt.   12  a    0.15824 X
     Occ.    3  a   ---  Virt.   15  a   -0.06647 X
     Occ.    3  a   ---  Virt.   16  a    0.06569 X
     Occ.    3  a   ---  Virt.   20  a   -0.06583 X
     Occ.    3  a   ---  Virt.   22  a   -0.06738 X
     Occ.    4  a   ---  Virt.    7  a   -0.14036 X
     Occ.    4  a   ---  Virt.    8  a    0.08991 X
     Occ.    4  a   ---  Virt.    9  a    0.41291 X
     Occ.    4  a   ---  Virt.   10  a   -0.26977 X
     Occ.    4  a   ---  Virt.   12  a    0.09938 X
     Occ.    4  a   ---  Virt.   14  a    0.05050 X
     Occ.    4  a   ---  Virt.   16  a   -0.10969 X
     Occ.    4  a   ---  Virt.   20  a    0.10736 X
     Occ.    4  a   ---  Virt.   32  a    0.06392 X
     Occ.    5  a   ---  Virt.    7  a    0.28936 X
     Occ.    5  a   ---  Virt.    8  a   -0.40775 X
     Occ.    5  a   ---  Virt.    9  a   -0.16628 X
     Occ.    5  a   ---  Virt.   10  a    0.11521 X
     Occ.    5  a   ---  Virt.   11  a    0.26905 X
     Occ.    5  a   ---  Virt.   12  a   -0.18891 X
     Occ.    5  a   ---  Virt.   14  a   -0.10902 X
     Occ.    5  a   ---  Virt.   15  a   -0.07565 X
     Occ.    5  a   ---  Virt.   20  a   -0.05858 X
     Occ.    5  a   ---  Virt.   21  a   -0.11277 X
     Occ.    5  a   ---  Virt.   33  a   -0.07350 X
  ----------------------------------------------------------------------------
  Root   9 triplet a              0.452509333 a.u.               12.3134 eV 
  ----------------------------------------------------------------------------
     Transition Moments                    Spin forbidden
     Oscillator Strength                   Spin forbidden
 
     Occ.    3  a   ---  Virt.    7  a   -0.17804 X
     Occ.    3  a   ---  Virt.    8  a    0.35071 X
     Occ.    3  a   ---  Virt.    9  a   -0.32139 X
     Occ.    3  a   ---  Virt.   10  a    0.20573 X
     Occ.    3  a   ---  Virt.   11  a   -0.23964 X
     Occ.    3  a   ---  Virt.   12  a    0.10153 X
     Occ.    3  a   ---  Virt.   14  a    0.07586 X
     Occ.    3  a   ---  Virt.   15  a    0.07385 X
     Occ.    3  a   ---  Virt.   16  a    0.08999 X
     Occ.    3  a   ---  Virt.   20  a   -0.06831 X
     Occ.    3  a   ---  Virt.   21  a    0.10782 X
     Occ.    3  a   ---  Virt.   32  a   -0.05036 X
     Occ.    3  a   ---  Virt.   33  a    0.05913 X
     Occ.    4  a   ---  Virt.    7  a    0.33935 X
     Occ.    4  a   ---  Virt.    8  a    0.27034 X
     Occ.    4  a   ---  Virt.    9  a   -0.13608 X
     Occ.    4  a   ---  Virt.   10  a    0.07355 X
     Occ.    4  a   ---  Virt.   11  a   -0.17501 X
     Occ.    4  a   ---  Virt.   12  a   -0.22773 X
     Occ.    4  a   ---  Virt.   14  a   -0.06499 X
     Occ.    4  a   ---  Virt.   15  a    0.10041 X
     Occ.    4  a   ---  Virt.   21  a    0.05024 X
     Occ.    4  a   ---  Virt.   22  a    0.10103 X
     Occ.    4  a   ---  Virt.   34  a   -0.06657 X
     Occ.    5  a   ---  Virt.    7  a    0.34183 X
     Occ.    5  a   ---  Virt.    8  a    0.16958 X
     Occ.    5  a   ---  Virt.    9  a    0.09390 X
     Occ.    5  a   ---  Virt.   10  a   -0.07683 X
     Occ.    5  a   ---  Virt.   11  a   -0.10460 X
     Occ.    5  a   ---  Virt.   12  a   -0.22721 X
     Occ.    5  a   ---  Virt.   14  a   -0.06740 X
     Occ.    5  a   ---  Virt.   15  a    0.07054 X
     Occ.    5  a   ---  Virt.   22  a    0.09589 X
     Occ.    5  a   ---  Virt.   34  a   -0.05314 X
  ----------------------------------------------------------------------------
  Root  10 triplet a              0.457440088 a.u.               12.4476 eV 
  ----------------------------------------------------------------------------
     Transition Moments                    Spin forbidden
     Oscillator Strength                   Spin forbidden
 
     Occ.    3  a   ---  Virt.   17  a    0.05980 X
     Occ.    4  a   ---  Virt.    9  a    0.54217 X
     Occ.    4  a   ---  Virt.   10  a   -0.41117 X
     Occ.    4  a   ---  Virt.   16  a   -0.05608 X
     Occ.    4  a   ---  Virt.   18  a    0.08264 X
     Occ.    4  a   ---  Virt.   20  a    0.17379 X
     Occ.    5  a   ---  Virt.    8  a    0.51993 X
     Occ.    5  a   ---  Virt.   11  a   -0.40245 X
     Occ.    5  a   ---  Virt.   17  a   -0.06284 X
     Occ.    5  a   ---  Virt.   18  a    0.08381 X
     Occ.    5  a   ---  Virt.   21  a    0.16792 X
 
              Target root =      1
          Target symmetry = none
      Ground state energy =    -40.216345971506
        Excitation energy =      0.375811747169
     Excited state energy =    -39.840534224337
 

 Task  times  cpu:      149.5s     wall:      153.0s
 
 
                                NWChem Input Module
                                -------------------
 
 
 Summary of allocated global arrays
-----------------------------------
  No active global arrays



                         GA Statistics for process    0
                         ------------------------------

       create   destroy   get      put      acc     scatter   gather  read&inc
calls: 2537     2537     2.05e+06 1.97e+05 1.11e+06 1002        0     1163     
number of processes/call 1.34e+00 1.84e+00 1.31e+00 0.00e+00 0.00e+00
bytes total:             1.40e+10 1.76e+08 9.59e+09 2.01e+04 0.00e+00 9.30e+03
bytes remote:            1.33e+10 6.35e+07 9.22e+09 0.00e+00 0.00e+00 0.00e+00
Max memory consumed for GA by this process: 9388000 bytes
 
MA_summarize_allocated_blocks: starting scan ...
MA_summarize_allocated_blocks: scan completed: 0 heap blocks, 0 stack blocks
MA usage statistics:

	allocation statistics:
					      heap	     stack
					      ----	     -----
	current number of blocks	         0	         0
	maximum number of blocks	        20	        35
	current total bytes		         0	         0
	maximum total bytes		     80136	  45855272
	maximum total K-bytes		        81	     45856
	maximum total M-bytes		         1	        46
 
 
                                     CITATION
                                     --------
                Please cite the following reference when publishing
                           results obtained with NWChem:
 
                 M. Valiev, E.J. Bylaska, N. Govind, K. Kowalski,
              T.P. Straatsma, H.J.J. van Dam, D. Wang, J. Nieplocha,
                        E. Apra, T.L. Windus, W.A. de Jong
                 "NWChem: a comprehensive and scalable open-source
                  solution for large scale molecular simulations"
                      Comput. Phys. Commun. 181, 1477 (2010)
                           doi:10.1016/j.cpc.2010.04.018
 
                                      AUTHORS
                                      -------
          E. Apra, E. J. Bylaska, W. A. de Jong, N. Govind, K. Kowalski,
       T. P. Straatsma, M. Valiev, H. J. J. van Dam, D. Wang, T. L. Windus,
        J. Hammond, J. Autschbach, K. Bhaskaran-Nair, J. Brabec, K. Lopata,
       S. A. Fischer, S. Krishnamoorthy, W. Ma, M. Klemm, O. Villa, Y. Chen,
    V. Anisimov, F. Aquino, S. Hirata, M. T. Hackler, T. Risthaus, M. Malagoli,
       A. Marenich, A. Otero-de-la-Roza, J. Mullin, P. Nichols, R. Peverati,
     J. Pittner, Y. Zhao, P.-D. Fan, A. Fonari, M. Williamson, R. J. Harrison,
       J. R. Rehr, M. Dupuis, D. Silverstein, D. M. A. Smith, J. Nieplocha,
        V. Tipparaju, M. Krishnan, B. E. Van Kuiken, A. Vazquez-Mayagoitia,
        L. Jensen, M. Swart, Q. Wu, T. Van Voorhis, A. A. Auer, M. Nooijen,
      L. D. Crosby, E. Brown, G. Cisneros, G. I. Fann, H. Fruchtl, J. Garza,
        K. Hirao, R. A. Kendall, J. A. Nichols, K. Tsemekhman, K. Wolinski,
     J. Anchell, D. E. Bernholdt, P. Borowski, T. Clark, D. Clerc, H. Dachsel,
   M. J. O. Deegan, K. Dyall, D. Elwood, E. Glendening, M. Gutowski, A. C. Hess,
         J. Jaffe, B. G. Johnson, J. Ju, R. Kobayashi, R. Kutteh, Z. Lin,
   R. Littlefield, X. Long, B. Meng, T. Nakajima, S. Niu, L. Pollack, M. Rosing,
   K. Glaesemann, G. Sandrone, M. Stave, H. Taylor, G. Thomas, J. H. van Lenthe,
                               A. T. Wong, Z. Zhang.

 Total times  cpu:      149.5s     wall:      153.1s
