 argument  1 = nitrogen.nw
 


============================== echo of input deck ==============================
start

permanent_dir /gpfs/scratch/bsundahl
scratch_dir /gpfs/scratch/bsundahl

title "Nitrogen"

memory stack 400 mb heap 800 mb global 4000 mb

echo

geometry units atomic noautosym
  N             0.00000000           0.00000000           1.00660955
  N             0.00000000           0.00000000          -1.00660955
end

basis spherical
 * library aug-cc-pvqz
end

driver
 maxiter 200
end

dft
 xc hfexch
 noio                         # turns off IO in charge fitting
 grid nodisk                  # turns off IO in grid
 direct                       # forces incore integrals
 maxiter 200
end

tddft
 nroots 10
end

task tddft energy
================================================================================


                                         
                                         
 
 
              Northwest Computational Chemistry Package (NWChem) 6.6
              ------------------------------------------------------
 
 
                    Environmental Molecular Sciences Laboratory
                       Pacific Northwest National Laboratory
                                Richland, WA 99352
 
                              Copyright (c) 1994-2015
                       Pacific Northwest National Laboratory
                            Battelle Memorial Institute
 
             NWChem is an open-source computational chemistry package
                        distributed under the terms of the
                      Educational Community License (ECL) 2.0
             A copy of the license is included with this distribution
                              in the LICENSE.TXT file
 
                                  ACKNOWLEDGMENT
                                  --------------

            This software and its documentation were developed at the
            EMSL at Pacific Northwest National Laboratory, a multiprogram
            national laboratory, operated for the U.S. Department of Energy
            by Battelle under Contract Number DE-AC05-76RL01830. Support
            for this work was provided by the Department of Energy Office
            of Biological and Environmental Research, Office of Basic
            Energy Sciences, and the Office of Advanced Scientific Computing.


           Job information
           ---------------

    hostname        = sn037
    program         = nwchem
    date            = Wed Aug  9 10:52:39 2017

    compiled        = Mon_Apr_10_13:22:52_2017
    source          = /gpfs/home/bsundahl/nwchem-6.6
    nwchem branch   = 6.6
    nwchem revision = 27746
    ga revision     = 10594
    input           = nitrogen.nw
    prefix          = nitrogen.
    data base       = /gpfs/scratch/bsundahl/nitrogen.db
    status          = startup
    nproc           =       28
    time left       =     -1s



           Memory information
           ------------------

    heap     =  104857596 doubles =    800.0 Mbytes
    stack    =   52428801 doubles =    400.0 Mbytes
    global   =  524288000 doubles =   4000.0 Mbytes (distinct from heap & stack)
    total    =  681574397 doubles =   5200.0 Mbytes
    verify   = yes
    hardfail = no 


           Directory information
           ---------------------
 
  0 permanent = /gpfs/scratch/bsundahl
  0 scratch   = /gpfs/scratch/bsundahl
 
 
 
 
                                NWChem Input Module
                                -------------------
 
 
                                     Nitrogen
                                     --------

          ------
          auto-z
          ------
 
 
                             Geometry "geometry" -> ""
                             -------------------------
 
 Output coordinates in a.u. (scale by  1.000000000 to convert to a.u.)
 
  No.       Tag          Charge          X              Y              Z
 ---- ---------------- ---------- -------------- -------------- --------------
    1 N                    7.0000     0.00000000     0.00000000     1.00660955
    2 N                    7.0000     0.00000000     0.00000000    -1.00660955
 
      Atomic Mass 
      ----------- 
 
      N                 14.003070
 

 Effective nuclear repulsion energy (a.u.)      24.3391293079

            Nuclear Dipole moment (a.u.) 
            ----------------------------
        X                 Y               Z
 ---------------- ---------------- ----------------
     0.0000000000     0.0000000000     0.0000000000
 


                                Z-matrix (autoz)
                                -------- 

 Units are Angstrom for bonds and degrees for angles
 
      Type          Name      I     J     K     L     M      Value
      ----------- --------  ----- ----- ----- ----- ----- ----------
    1 Stretch                  1     2                       1.06535
 
 
            XYZ format geometry
            -------------------
     2
 geometry
 N                     0.00000000     0.00000000     0.53267487
 N                     0.00000000     0.00000000    -0.53267487
 
 ==============================================================================
                                internuclear distances
 ------------------------------------------------------------------------------
       center one      |      center two      | atomic units |       a.u.
 ------------------------------------------------------------------------------
    2 N                |   1 N                |     2.01322  |     2.01322
 ------------------------------------------------------------------------------
                         number of included internuclear distances:          1
 ==============================================================================





 Summary of "ao basis" -> "" (spherical)
 ------------------------------------------------------------------------------
       Tag                 Description            Shells   Functions and Types
 ---------------- ------------------------------  ------  ---------------------
 *                        aug-cc-pvqz                 on all atoms 


  xc_inp: hfexch multiplicative factor not found.
 
                                 NWChem DFT Module
                                 -----------------
 
 
                                     Nitrogen
 
 
                      Basis "ao basis" -> "ao basis" (spherical)
                      -----
  N (Nitrogen)
  ------------
            Exponent  Coefficients 
       -------------- ---------------------------------------------------------
  1 S  4.58400000E+04  0.000092
  1 S  6.86800000E+03  0.000717
  1 S  1.56300000E+03  0.003749
  1 S  4.42400000E+02  0.015532
  1 S  1.44300000E+02  0.053146
  1 S  5.21800000E+01  0.146787
  1 S  2.03400000E+01  0.304663
  1 S  8.38100000E+00  0.397684
  1 S  3.52900000E+00  0.217641
 
  2 S  4.58400000E+04 -0.000020
  2 S  6.86800000E+03 -0.000159
  2 S  1.56300000E+03 -0.000824
  2 S  4.42400000E+02 -0.003478
  2 S  1.44300000E+02 -0.011966
  2 S  5.21800000E+01 -0.035388
  2 S  2.03400000E+01 -0.080077
  2 S  8.38100000E+00 -0.146722
  2 S  3.52900000E+00 -0.116360
 
  3 S  1.05400000E+00  1.000000
 
  4 S  4.11800000E-01  1.000000
 
  5 S  1.55200000E-01  1.000000
 
  6 S  5.46400000E-02  1.000000
 
  7 P  4.93300000E+01  0.005533
  7 P  1.13700000E+01  0.037962
  7 P  3.43500000E+00  0.149028
 
  8 P  1.18200000E+00  1.000000
 
  9 P  4.17300000E-01  1.000000
 
 10 P  1.42800000E-01  1.000000
 
 11 P  4.40200000E-02  1.000000
 
 12 D  2.83700000E+00  1.000000
 
 13 D  9.68000000E-01  1.000000
 
 14 D  3.35000000E-01  1.000000
 
 15 D  1.11000000E-01  1.000000
 
 16 F  2.02700000E+00  1.000000
 
 17 F  6.85000000E-01  1.000000
 
 18 F  2.45000000E-01  1.000000
 
 19 G  1.42700000E+00  1.000000
 
 20 G  5.59000000E-01  1.000000
 


 Summary of "ao basis" -> "ao basis" (spherical)
 ------------------------------------------------------------------------------
       Tag                 Description            Shells   Functions and Types
 ---------------- ------------------------------  ------  ---------------------
 N                        aug-cc-pvqz               20       80   6s5p4d3f2g




 Summary of "ao basis" -> "ao basis" (spherical)
 ------------------------------------------------------------------------------
       Tag                 Description            Shells   Functions and Types
 ---------------- ------------------------------  ------  ---------------------
 N                        aug-cc-pvqz               20       80   6s5p4d3f2g


  Caching 1-el integrals 
 
            General Information
            -------------------
          SCF calculation type: DFT
          Wavefunction type:  closed shell.
          No. of atoms     :     2
          No. of electrons :    14
           Alpha electrons :     7
            Beta electrons :     7
          Charge           :     0
          Spin multiplicity:     1
          Use of symmetry is: off; symmetry adaption is: off
          Maximum number of iterations: 200
          This is a Direct SCF calculation.
          AO basis - number of functions:   160
                     number of shells:    40
          Convergence on energy requested: 1.00D-06
          Convergence on density requested: 1.00D-05
          Convergence on gradient requested: 5.00D-04
 
              XC Information
              --------------
                     Hartree-Fock (Exact) Exchange  1.000          
 
          Convergence Information
          -----------------------
          Convergence aids based upon iterative change in 
          total energy or number of iterations. 
          Levelshifting, if invoked, occurs when the 
          HOMO/LUMO gap drops below (HL_TOL): 1.00D-02
          DIIS, if invoked, will attempt to extrapolate 
          using up to (NFOCK): 10 stored Fock matrices.

                    Damping( 0%)  Levelshifting(0.5)       DIIS
                  --------------- ------------------- ---------------
          dE  on:    start            ASAP                start   
          dE off:    2 iters        200 iters           200 iters 

 
      Screening Tolerance Information
      -------------------------------
          Density screening/tol_rho: 1.00D-10
          AO Gaussian exp screening on grid/accAOfunc:  14
          CD Gaussian exp screening on grid/accCDfunc:  20
          XC Gaussian exp screening on grid/accXCfunc:  20
          Schwarz screening/accCoul: 1.00D-08

 
      Superposition of Atomic Density Guess
      -------------------------------------
 
 Sum of atomic energies:        -108.62544822
 
      Non-variational initial energy
      ------------------------------

 Total energy =    -109.244613
 1-e energy   =    -195.159584
 2-e energy   =      61.575842
 HOMO         =      -0.440188
 LUMO         =       0.023943
 
   Time after variat. SCF:      0.4
   Time prior to 1st pass:      0.4

           Memory utilization after 1st SCF pass: 
           Heap Space remaining (MW):      104.85           104853268
          Stack Space remaining (MW):       52.43            52427916

   convergence    iter        energy       DeltaE   RMS-Dens  Diis-err    time
 ---------------- ----- ----------------- --------- --------- ---------  ------
 d= 0,ls=0.0,diis     1   -108.9841234870 -1.33D+02  8.73D-04  7.80D-02     0.9
 d= 0,ls=0.0,diis     2   -108.9942093067 -1.01D-02  3.05D-04  6.42D-03     1.5
 d= 0,ls=0.0,diis     3   -108.9948765317 -6.67D-04  1.01D-04  3.93D-04     2.0
 d= 0,ls=0.0,diis     4   -108.9949322467 -5.57D-05  1.20D-05  4.80D-06     2.6
 d= 0,ls=0.0,diis     5   -108.9949329095 -6.63D-07  1.50D-06  7.12D-08     3.1


         Total DFT energy =     -108.994932909521
      One electron energy =     -195.673776720363
           Coulomb energy =       75.495500251522
    Exchange-Corr. energy =      -13.155785748564
 Nuclear repulsion energy =       24.339129307883

 Numeric. integr. density =        0.000000000000

     Total iterative time =      2.7s


 
                       DFT Final Molecular Orbital Analysis
                       ------------------------------------
 
 Vector    1  Occ=2.000000D+00  E=-1.567179D+01
              MO Center=  4.6D-18,  3.5D-18, -9.1D-10, r^2= 3.0D-01
   Bfn.  Coefficient  Atom+Function         Bfn.  Coefficient  Atom+Function  
  ----- ------------  ---------------      ----- ------------  ---------------
     1      0.701525  1 N  s                 81      0.701525  2 N  s          
 
 Vector    2  Occ=2.000000D+00  E=-1.566747D+01
              MO Center=  1.4D-17, -2.0D-18,  9.1D-10, r^2= 3.0D-01
   Bfn.  Coefficient  Atom+Function         Bfn.  Coefficient  Atom+Function  
  ----- ------------  ---------------      ----- ------------  ---------------
     1      0.701936  1 N  s                 81     -0.701936  2 N  s          
 
 Vector    3  Occ=2.000000D+00  E=-1.494981D+00
              MO Center=  4.7D-16, -1.1D-15,  2.6D-12, r^2= 4.2D-01
   Bfn.  Coefficient  Atom+Function         Bfn.  Coefficient  Atom+Function  
  ----- ------------  ---------------      ----- ------------  ---------------
     4      0.269423  1 N  s                 84      0.269423  2 N  s          
     2      0.235390  1 N  s                 82      0.235390  2 N  s          
     3      0.184092  1 N  s                 83      0.184092  2 N  s          
 
 Vector    4  Occ=2.000000D+00  E=-7.686044D-01
              MO Center= -2.8D-16,  7.4D-17,  8.6D-11, r^2= 1.3D+00
   Bfn.  Coefficient  Atom+Function         Bfn.  Coefficient  Atom+Function  
  ----- ------------  ---------------      ----- ------------  ---------------
     4      0.395471  1 N  s                 84     -0.395471  2 N  s          
     5      0.328404  1 N  s                 85     -0.328404  2 N  s          
     2      0.224123  1 N  s                 82     -0.224123  2 N  s          
     3      0.178124  1 N  s                 83     -0.178124  2 N  s          
 
 Vector    5  Occ=2.000000D+00  E=-6.373217D-01
              MO Center= -1.1D-14,  2.4D-14, -8.9D-11, r^2= 1.3D+00
   Bfn.  Coefficient  Atom+Function         Bfn.  Coefficient  Atom+Function  
  ----- ------------  ---------------      ----- ------------  ---------------
    15      0.256540  1 N  pz                95     -0.256540  2 N  pz         
    12      0.236883  1 N  pz                92     -0.236883  2 N  pz         
     5      0.204692  1 N  s                 85      0.204692  2 N  s          
     4      0.203617  1 N  s                 84      0.203617  2 N  s          
 
 Vector    6  Occ=2.000000D+00  E=-6.284697D-01
              MO Center=  1.4D-14, -2.1D-14,  5.3D-12, r^2= 8.7D-01
   Bfn.  Coefficient  Atom+Function         Bfn.  Coefficient  Atom+Function  
  ----- ------------  ---------------      ----- ------------  ---------------
    14      0.227504  1 N  py                94      0.227504  2 N  py         
    11      0.182435  1 N  py                91      0.182435  2 N  py         
 
 Vector    7  Occ=2.000000D+00  E=-6.284697D-01
              MO Center= -3.0D-15, -1.8D-15,  5.3D-12, r^2= 8.7D-01
   Bfn.  Coefficient  Atom+Function         Bfn.  Coefficient  Atom+Function  
  ----- ------------  ---------------      ----- ------------  ---------------
    13      0.227504  1 N  px                93      0.227504  2 N  px         
    10      0.182435  1 N  px                90      0.182435  2 N  px         
 
 Vector    8  Occ=0.000000D+00  E= 7.143190D-02
              MO Center= -6.9D-14,  8.7D-14,  1.6D-10, r^2= 1.7D+01
   Bfn.  Coefficient  Atom+Function         Bfn.  Coefficient  Atom+Function  
  ----- ------------  ---------------      ----- ------------  ---------------
     6     14.520899  1 N  s                 86    -14.520899  2 N  s          
     5      6.753859  1 N  s                 85     -6.753859  2 N  s          
    21     -3.349306  1 N  pz               101     -3.349306  2 N  pz         
    18     -3.300543  1 N  pz                98     -3.300543  2 N  pz         
    15     -0.717190  1 N  pz                95     -0.717190  2 N  pz         
 
 Vector    9  Occ=0.000000D+00  E= 1.008119D-01
              MO Center= -8.2D-14, -3.1D-14, -1.7D-10, r^2= 1.2D+01
   Bfn.  Coefficient  Atom+Function         Bfn.  Coefficient  Atom+Function  
  ----- ------------  ---------------      ----- ------------  ---------------
    21      1.706650  1 N  pz               101     -1.706650  2 N  pz         
     6      0.743374  1 N  s                 86      0.743374  2 N  s          
    39     -0.348135  1 N  d  0             119     -0.348135  2 N  d  0       
    18      0.224653  1 N  pz                98     -0.224653  2 N  pz         
     4      0.221164  1 N  s                 84      0.221164  2 N  s          
 
 Vector   10  Occ=0.000000D+00  E= 1.075832D-01
              MO Center=  3.0D-14,  7.2D-14,  2.5D-10, r^2= 1.0D+01
   Bfn.  Coefficient  Atom+Function         Bfn.  Coefficient  Atom+Function  
  ----- ------------  ---------------      ----- ------------  ---------------
    20      0.592070  1 N  py               100      0.592070  2 N  py         
    17     -0.250717  1 N  py                19      0.251580  1 N  px         
    97     -0.250717  2 N  py                99      0.251580  2 N  px         
 
 Vector   11  Occ=0.000000D+00  E= 1.075832D-01
              MO Center=  5.9D-14, -2.6D-14,  2.5D-10, r^2= 1.0D+01
   Bfn.  Coefficient  Atom+Function         Bfn.  Coefficient  Atom+Function  
  ----- ------------  ---------------      ----- ------------  ---------------
    19      0.592070  1 N  px                99      0.592070  2 N  px         
    16     -0.250717  1 N  px                20     -0.251580  1 N  py         
    96     -0.250717  2 N  px               100     -0.251580  2 N  py         
 
 Vector   12  Occ=0.000000D+00  E= 1.115180D-01
              MO Center=  9.4D-14,  2.0D-16, -2.4D-10, r^2= 1.2D+01
   Bfn.  Coefficient  Atom+Function         Bfn.  Coefficient  Atom+Function  
  ----- ------------  ---------------      ----- ------------  ---------------
    19      3.108103  1 N  px                99     -3.108103  2 N  px         
    16      2.013962  1 N  px                96     -2.013962  2 N  px         
    40      0.892356  1 N  d  1             120      0.892356  2 N  d  1       
    13      0.406749  1 N  px                93     -0.406749  2 N  px         
    35      0.316887  1 N  d  1             115      0.316887  2 N  d  1       
 
 Vector   13  Occ=0.000000D+00  E= 1.115180D-01
              MO Center=  1.2D-15, -1.1D-13, -2.4D-10, r^2= 1.2D+01
   Bfn.  Coefficient  Atom+Function         Bfn.  Coefficient  Atom+Function  
  ----- ------------  ---------------      ----- ------------  ---------------
    20      3.108103  1 N  py               100     -3.108103  2 N  py         
    17      2.013962  1 N  py                97     -2.013962  2 N  py         
    38     -0.892356  1 N  d -1             118     -0.892356  2 N  d -1       
    14      0.406749  1 N  py                94     -0.406749  2 N  py         
    33     -0.316887  1 N  d -1             113     -0.316887  2 N  d -1       
 
 Vector   14  Occ=0.000000D+00  E= 1.381385D-01
              MO Center= -5.0D-15, -1.6D-14,  1.2D-11, r^2= 1.1D+01
   Bfn.  Coefficient  Atom+Function         Bfn.  Coefficient  Atom+Function  
  ----- ------------  ---------------      ----- ------------  ---------------
    21      2.556407  1 N  pz               101     -2.556407  2 N  pz         
    18      1.874168  1 N  pz                98     -1.874168  2 N  pz         
     5      1.748058  1 N  s                 85      1.748058  2 N  s          
    39     -1.073040  1 N  d  0             119     -1.073040  2 N  d  0       
     6     -1.061918  1 N  s                 86     -1.061918  2 N  s          
 
 Vector   15  Occ=0.000000D+00  E= 1.906818D-01
              MO Center= -1.2D-14, -6.1D-16, -4.9D-12, r^2= 6.6D+00
   Bfn.  Coefficient  Atom+Function         Bfn.  Coefficient  Atom+Function  
  ----- ------------  ---------------      ----- ------------  ---------------
    19      2.754807  1 N  px                99     -2.754807  2 N  px         
    16      2.348277  1 N  px                96     -2.348277  2 N  px         
    40      1.388651  1 N  d  1             120      1.388651  2 N  d  1       
    35      0.499300  1 N  d  1             115      0.499300  2 N  d  1       
    60     -0.209776  1 N  f  1             140      0.209776  2 N  f  1       
 
 Vector   16  Occ=0.000000D+00  E= 1.906818D-01
              MO Center=  1.4D-16,  3.3D-14, -4.9D-12, r^2= 6.6D+00
   Bfn.  Coefficient  Atom+Function         Bfn.  Coefficient  Atom+Function  
  ----- ------------  ---------------      ----- ------------  ---------------
    20      2.754807  1 N  py               100     -2.754807  2 N  py         
    17      2.348277  1 N  py                97     -2.348277  2 N  py         
    38     -1.388651  1 N  d -1             118     -1.388651  2 N  d -1       
    33     -0.499300  1 N  d -1             113     -0.499300  2 N  d -1       
    58      0.209776  1 N  f -1             138     -0.209776  2 N  f -1       
 
 Vector   17  Occ=0.000000D+00  E= 2.448454D-01
              MO Center=  1.5D-13,  2.9D-14,  1.1D-11, r^2= 1.3D+01
   Bfn.  Coefficient  Atom+Function         Bfn.  Coefficient  Atom+Function  
  ----- ------------  ---------------      ----- ------------  ---------------
     6     27.183082  1 N  s                 86    -27.183082  2 N  s          
     5     14.881091  1 N  s                 85    -14.881091  2 N  s          
    18     -7.642390  1 N  pz                98     -7.642390  2 N  pz         
    21     -4.782153  1 N  pz               101     -4.782153  2 N  pz         
    15     -1.637622  1 N  pz                95     -1.637622  2 N  pz         
 
 Vector   18  Occ=0.000000D+00  E= 3.176980D-01
              MO Center=  2.2D-16, -1.5D-16,  1.6D-11, r^2= 4.9D+00
   Bfn.  Coefficient  Atom+Function         Bfn.  Coefficient  Atom+Function  
  ----- ------------  ---------------      ----- ------------  ---------------
    41      0.439632  1 N  d  2             121      0.439632  2 N  d  2       
    37     -0.364887  1 N  d -2             117     -0.364887  2 N  d -2       
 
 Vector   19  Occ=0.000000D+00  E= 3.176980D-01
              MO Center=  8.7D-17, -1.1D-15,  1.6D-11, r^2= 4.9D+00
   Bfn.  Coefficient  Atom+Function         Bfn.  Coefficient  Atom+Function  
  ----- ------------  ---------------      ----- ------------  ---------------
    37      0.439632  1 N  d -2             117      0.439632  2 N  d -2       
    41      0.364887  1 N  d  2             121      0.364887  2 N  d  2       
 
 Vector   20  Occ=0.000000D+00  E= 3.566455D-01
              MO Center=  4.2D-15, -1.7D-15,  2.8D-11, r^2= 9.5D+00
   Bfn.  Coefficient  Atom+Function         Bfn.  Coefficient  Atom+Function  
  ----- ------------  ---------------      ----- ------------  ---------------
    18      4.087644  1 N  pz                98     -4.087644  2 N  pz         
    21      2.806033  1 N  pz               101     -2.806033  2 N  pz         
    39     -2.742545  1 N  d  0             119     -2.742545  2 N  d  0       
     5      2.641179  1 N  s                 85      2.641179  2 N  s          
     4      1.681657  1 N  s                 84      1.681657  2 N  s          
 
 Vector   21  Occ=0.000000D+00  E= 4.089137D-01
              MO Center=  1.5D-14, -1.3D-14, -5.3D-11, r^2= 7.2D+00
   Bfn.  Coefficient  Atom+Function         Bfn.  Coefficient  Atom+Function  
  ----- ------------  ---------------      ----- ------------  ---------------
     5     10.966189  1 N  s                 85    -10.966189  2 N  s          
     6      4.328341  1 N  s                 86     -4.328341  2 N  s          
    18     -4.129019  1 N  pz                98     -4.129019  2 N  pz         
    39      2.118880  1 N  d  0             119     -2.118880  2 N  d  0       
    15     -0.854103  1 N  pz                95     -0.854103  2 N  pz         
 
 Vector   22  Occ=0.000000D+00  E= 4.196864D-01
              MO Center= -1.3D-13, -3.6D-13, -1.4D-11, r^2= 7.0D+00
   Bfn.  Coefficient  Atom+Function         Bfn.  Coefficient  Atom+Function  
  ----- ------------  ---------------      ----- ------------  ---------------
    41      2.198200  1 N  d  2             121     -2.198200  2 N  d  2       
    61     -0.577069  1 N  f  2             141     -0.577069  2 N  f  2       
    36      0.405726  1 N  d  2             116     -0.405726  2 N  d  2       
 
 Vector   23  Occ=0.000000D+00  E= 4.196864D-01
              MO Center= -1.7D-13,  4.1D-13, -1.4D-11, r^2= 7.0D+00
   Bfn.  Coefficient  Atom+Function         Bfn.  Coefficient  Atom+Function  
  ----- ------------  ---------------      ----- ------------  ---------------
    37      2.198200  1 N  d -2             117     -2.198200  2 N  d -2       
    57     -0.577069  1 N  f -2             137     -0.577069  2 N  f -2       
    32      0.405726  1 N  d -2             112     -0.405726  2 N  d -2       
 
 Vector   24  Occ=0.000000D+00  E= 4.230130D-01
              MO Center=  1.8D-17,  1.6D-15,  6.8D-10, r^2= 7.0D+00
   Bfn.  Coefficient  Atom+Function         Bfn.  Coefficient  Atom+Function  
  ----- ------------  ---------------      ----- ------------  ---------------
    38      1.529193  1 N  d -1             118     -1.529193  2 N  d -1       
    17      0.638157  1 N  py                97      0.638157  2 N  py         
    40      0.559800  1 N  d  1             120     -0.559800  2 N  d  1       
    58     -0.423082  1 N  f -1             138     -0.423082  2 N  f -1       
    16     -0.233614  1 N  px                20     -0.233134  1 N  py         
 
 Vector   25  Occ=0.000000D+00  E= 4.230130D-01
              MO Center= -7.2D-15, -2.2D-15,  6.9D-10, r^2= 7.0D+00
   Bfn.  Coefficient  Atom+Function         Bfn.  Coefficient  Atom+Function  
  ----- ------------  ---------------      ----- ------------  ---------------
    40      1.529193  1 N  d  1             120     -1.529193  2 N  d  1       
    16     -0.638157  1 N  px                96     -0.638157  2 N  px         
    38     -0.559800  1 N  d -1             118      0.559800  2 N  d -1       
    60     -0.423082  1 N  f  1             140     -0.423082  2 N  f  1       
    17     -0.233614  1 N  py                19      0.233134  1 N  px         
 
 Vector   26  Occ=0.000000D+00  E= 4.258667D-01
              MO Center= -1.9D-14, -4.2D-13, -6.9D-10, r^2= 9.3D+00
   Bfn.  Coefficient  Atom+Function         Bfn.  Coefficient  Atom+Function  
  ----- ------------  ---------------      ----- ------------  ---------------
    16      9.138215  1 N  px                96     -9.138215  2 N  px         
    40      4.063952  1 N  d  1             120      4.063952  2 N  d  1       
    19      3.400966  1 N  px                99     -3.400966  2 N  px         
    35      1.528524  1 N  d  1             115      1.528524  2 N  d  1       
    13      1.463692  1 N  px                93     -1.463692  2 N  px         
 
 Vector   27  Occ=0.000000D+00  E= 4.258667D-01
              MO Center=  1.8D-13,  1.6D-13, -6.8D-10, r^2= 9.3D+00
   Bfn.  Coefficient  Atom+Function         Bfn.  Coefficient  Atom+Function  
  ----- ------------  ---------------      ----- ------------  ---------------
    17      9.138215  1 N  py                97     -9.138215  2 N  py         
    38     -4.063952  1 N  d -1             118     -4.063952  2 N  d -1       
    20      3.400966  1 N  py               100     -3.400966  2 N  py         
    33     -1.528524  1 N  d -1             113     -1.528524  2 N  d -1       
    14      1.463692  1 N  py                94     -1.463692  2 N  py         
 
 Vector   28  Occ=0.000000D+00  E= 5.539105D-01
              MO Center=  4.6D-16, -1.1D-15,  5.7D-12, r^2= 4.6D+00
   Bfn.  Coefficient  Atom+Function         Bfn.  Coefficient  Atom+Function  
  ----- ------------  ---------------      ----- ------------  ---------------
    17      0.911860  1 N  py                97      0.911860  2 N  py         
    14     -0.697753  1 N  py                94     -0.697753  2 N  py         
    20     -0.362379  1 N  py               100     -0.362379  2 N  py         
    16     -0.342297  1 N  px                96     -0.342297  2 N  px         
    38     -0.314831  1 N  d -1             118      0.314831  2 N  d -1       
 

 center of mass
 --------------
 x =   0.00000000 y =   0.00000000 z =   0.00000000

 moments of inertia (a.u.)
 ------------------
          28.377579445741           0.000000000000           0.000000000000
           0.000000000000          28.377579445741           0.000000000000
           0.000000000000           0.000000000000           0.000000000000
 
     Multipole analysis of the density
     ---------------------------------
 
     L   x y z        total         alpha         beta         nuclear
     -   - - -        -----         -----         ----         -------
     0   0 0 0     -0.000000     -7.000000     -7.000000     14.000000
 
     1   1 0 0      0.000000      0.000000      0.000000      0.000000
     1   0 1 0      0.000000      0.000000      0.000000      0.000000
     1   0 0 1     -0.000000     -0.000000     -0.000000      0.000000
 
     2   2 0 0     -7.630341     -3.815170     -3.815170      0.000000
     2   1 1 0      0.000000      0.000000      0.000000      0.000000
     2   1 0 1      0.000000      0.000000      0.000000      0.000000
     2   0 2 0     -7.630341     -3.815170     -3.815170      0.000000
     2   0 1 1     -0.000000     -0.000000     -0.000000      0.000000
     2   0 0 2     -8.643012    -11.414346    -11.414346     14.185679
 
                                NWChem TDDFT Module
                                -------------------
 
 
                                     Nitrogen
 
 
            General Information
            -------------------
           No. of orbitals :   320
            Alpha orbitals :   160
             Beta orbitals :   160
        Alpha frozen cores :     0
         Beta frozen cores :     0
     Alpha frozen virtuals :     0
      Beta frozen virtuals :     0
         Spin multiplicity :     1
    Number of AO functions :   160
        Use of symmetry is : off
      Symmetry adaption is : off
         Schwarz screening : 0.10D-07
 
              XC Information
              --------------
              Hartree-Fock (Exact) Exchange   1.00          
 
             TDDFT Information
             -----------------
          Calculation type : TDHF              
         Wavefunction type : Restricted singlets & triplets
          No. of electrons :    14
           Alpha electrons :     7
            Beta electrons :     7
              No. of roots :    10
          Max subspacesize :  6000
            Max iterations :   100
               Target root :     1
           Target symmetry : none
      Symmetry restriction : off
                 Algorithm : Optimal
        Davidson threshold : 0.10D-03
 
            Memory Information
            ------------------
          Available GA space size is       14680038400 doubles
          Available MA space size is         157281556 doubles
          Length of a trial vector is         1071
          Algorithm : Incore multiple tensor contraction
          Estimated peak GA usage is          27875820 doubles
          Estimated peak MA usage is             71000 doubles
 
   10 smallest eigenvalue differences (eV) 
--------------------------------------------------------
  No. Spin  Occ  Vir  Irrep   E(Occ)    E(Vir)   E(Diff)
--------------------------------------------------------
    1    1    7    8 a        -0.628     0.071    19.045
    2    1    6    8 a        -0.628     0.071    19.045
    3    1    5    8 a        -0.637     0.071    19.286
    4    1    7    9 a        -0.628     0.101    19.845
    5    1    6    9 a        -0.628     0.101    19.845
    6    1    7   10 a        -0.628     0.108    20.029
    7    1    7   11 a        -0.628     0.108    20.029
    8    1    6   10 a        -0.628     0.108    20.029
    9    1    6   11 a        -0.628     0.108    20.029
   10    1    5    9 a        -0.637     0.101    20.086
--------------------------------------------------------

  Entering Davidson iterations
  Restricted singlet excited states

  Iter   NTrls   NConv    DeltaV     DeltaE      Time   
  ----  ------  ------  ---------  ---------  --------- 
    1     10       0     0.16E+00   0.10+100        1.3
    2     30       0     0.53E-01   0.26E-01        1.3
    3     50       0     0.22E+00   0.75E-01        1.3
    4     70       1     0.66E-01   0.67E-01        1.4
    5     88       1     0.15E-01   0.36E-02        1.3
    6    106       3     0.60E-02   0.12E-03        1.4
    7    120       5     0.21E-02   0.62E-05        1.3
    8    130       7     0.36E-03   0.39E-06        1.3
    9    136      10     0.99E-04   0.17E-07        1.3
  ----  ------  ------  ---------  ---------  --------- 
  Convergence criterion met
 
  Ground state a        -108.994932909521 a.u.
 
  ----------------------------------------------------------------------------
  Root   1 singlet a              0.379966838 a.u.               10.3394 eV 
  ----------------------------------------------------------------------------
     Transition Moments    X -0.00000   Y -0.00000   Z  0.00000
     Transition Moments   XX  0.00000  XY  0.00000  XZ  1.09045
     Transition Moments   YY -0.00000  YZ  0.81380  ZZ -0.00000
     Dipole Oscillator Strength                         0.00000
 
     Occ.    3  a   ---  Virt.   15  a   -0.06111 X
     Occ.    5  a   ---  Virt.   12  a   -0.44147 X
     Occ.    5  a   ---  Virt.   13  a   -0.32460 X
     Occ.    5  a   ---  Virt.   15  a    0.65132 X
     Occ.    5  a   ---  Virt.   16  a    0.44875 X
     Occ.    5  a   ---  Virt.   26  a   -0.18786 X
     Occ.    5  a   ---  Virt.   27  a   -0.13487 X
     Occ.    5  a   ---  Virt.   33  a    0.08337 X
     Occ.    5  a   ---  Virt.   34  a    0.06161 X
  ----------------------------------------------------------------------------
  Root   2 singlet a              0.379966840 a.u.               10.3394 eV 
  ----------------------------------------------------------------------------
     Transition Moments    X -0.00000   Y  0.00000   Z  0.00000
     Transition Moments   XX  0.00000  XY  0.00000  XZ  0.81381
     Transition Moments   YY -0.00000  YZ -1.09046  ZZ -0.00000
     Dipole Oscillator Strength                         0.00000
 
     Occ.    3  a   ---  Virt.   16  a    0.06111 X
     Occ.    5  a   ---  Virt.   12  a   -0.32460 X
     Occ.    5  a   ---  Virt.   13  a    0.44147 X
     Occ.    5  a   ---  Virt.   15  a    0.44875 X
     Occ.    5  a   ---  Virt.   16  a   -0.65132 X
     Occ.    5  a   ---  Virt.   26  a   -0.13487 X
     Occ.    5  a   ---  Virt.   27  a    0.18786 X
     Occ.    5  a   ---  Virt.   33  a    0.06161 X
     Occ.    5  a   ---  Virt.   34  a   -0.08337 X
  ----------------------------------------------------------------------------
  Root   3 singlet a              0.516797752 a.u.               14.0628 eV 
  ----------------------------------------------------------------------------
     Transition Moments    X  0.49587   Y  0.36189   Z  0.00000
     Transition Moments   XX -0.00000  XY -0.00000  XZ  0.00000
     Transition Moments   YY -0.00000  YZ  0.00000  ZZ -0.00000
     Dipole Oscillator Strength                         0.12984
 
     Occ.    5  a   ---  Virt.   10  a   -0.14740 X
     Occ.    5  a   ---  Virt.   11  a   -0.08806 X
     Occ.    7  a   ---  Virt.    9  a   -0.75957 X
     Occ.    7  a   ---  Virt.   14  a    0.60351 X
     Occ.    7  a   ---  Virt.   20  a   -0.10303 X
     Occ.    7  a   ---  Virt.   31  a   -0.10364 X
     Occ.    7  a   ---  Virt.   32  a    0.05236 X
  ----------------------------------------------------------------------------
  Root   4 singlet a              0.516797752 a.u.               14.0628 eV 
  ----------------------------------------------------------------------------
     Transition Moments    X -0.36189   Y  0.49587   Z  0.00000
     Transition Moments   XX -0.00000  XY  0.00000  XZ -0.00000
     Transition Moments   YY  0.00000  YZ  0.00000  ZZ -0.00000
     Dipole Oscillator Strength                         0.12984
 
     Occ.    5  a   ---  Virt.   10  a   -0.08806 X
     Occ.    5  a   ---  Virt.   11  a    0.14740 X
     Occ.    6  a   ---  Virt.    9  a   -0.75957 X
     Occ.    6  a   ---  Virt.   14  a    0.60351 X
     Occ.    6  a   ---  Virt.   20  a   -0.10303 X
     Occ.    6  a   ---  Virt.   31  a   -0.10364 X
     Occ.    6  a   ---  Virt.   32  a    0.05236 X
  ----------------------------------------------------------------------------
  Root   5 singlet a              0.527211435 a.u.               14.3462 eV 
  ----------------------------------------------------------------------------
     Transition Moments    X -0.00000   Y  0.00000   Z -1.40546
     Transition Moments   XX  0.00000  XY -0.00000  XZ -0.00000
     Transition Moments   YY  0.00000  YZ  0.00000  ZZ  0.00000
     Dipole Oscillator Strength                         0.69427
 
     Occ.    4  a   ---  Virt.    9  a    0.27375 X
     Occ.    4  a   ---  Virt.   14  a   -0.13204 X
     Occ.    4  a   ---  Virt.   31  a    0.08760 X
     Occ.    5  a   ---  Virt.    8  a   -0.58455 X
     Occ.    5  a   ---  Virt.   17  a    0.25773 X
     Occ.    5  a   ---  Virt.   30  a   -0.05064 X
     Occ.    5  a   ---  Virt.   35  a   -0.07397 X
     Occ.    6  a   ---  Virt.   12  a   -0.22205 X
     Occ.    6  a   ---  Virt.   13  a    0.34885 X
     Occ.    6  a   ---  Virt.   15  a    0.13706 X
     Occ.    6  a   ---  Virt.   16  a   -0.23067 X
     Occ.    7  a   ---  Virt.   12  a    0.34885 X
     Occ.    7  a   ---  Virt.   13  a    0.22205 X
     Occ.    7  a   ---  Virt.   15  a   -0.23067 X
     Occ.    7  a   ---  Virt.   16  a   -0.13706 X
  ----------------------------------------------------------------------------
  Root   6 singlet a              0.539824560 a.u.               14.6894 eV 
  ----------------------------------------------------------------------------
     Transition Moments    X  0.00000   Y  0.00000   Z  0.00000
     Transition Moments   XX  0.53928  XY -0.00000  XZ -0.00000
     Transition Moments   YY  0.53928  YZ  0.00000  ZZ  1.37328
     Dipole Oscillator Strength                         0.00000
 
     Occ.    4  a   ---  Virt.    8  a    0.13480 X
     Occ.    4  a   ---  Virt.   17  a   -0.09186 X
     Occ.    5  a   ---  Virt.    9  a   -0.82240 X
     Occ.    5  a   ---  Virt.   14  a    0.45659 X
     Occ.    5  a   ---  Virt.   31  a   -0.08663 X
     Occ.    6  a   ---  Virt.   10  a    0.10641 X
     Occ.    6  a   ---  Virt.   11  a   -0.15721 X
     Occ.    6  a   ---  Virt.   28  a    0.05359 X
     Occ.    7  a   ---  Virt.   10  a    0.15721 X
     Occ.    7  a   ---  Virt.   11  a    0.10641 X
     Occ.    7  a   ---  Virt.   29  a    0.05359 X
  ----------------------------------------------------------------------------
  Root   7 singlet a              0.539828749 a.u.               14.6895 eV 
  ----------------------------------------------------------------------------
     Transition Moments    X  0.00000   Y -0.00000   Z -0.00000
     Transition Moments   XX  0.01011  XY  0.94796  XZ  0.00000
     Transition Moments   YY -0.01011  YZ -0.00000  ZZ  0.00000
     Dipole Oscillator Strength                         0.00000
 
     Occ.    6  a   ---  Virt.   10  a    0.12651 X
     Occ.    6  a   ---  Virt.   11  a   -0.68426 X
     Occ.    6  a   ---  Virt.   28  a    0.09541 X
     Occ.    6  a   ---  Virt.   29  a   -0.06913 X
     Occ.    7  a   ---  Virt.   10  a   -0.68426 X
     Occ.    7  a   ---  Virt.   11  a   -0.12651 X
     Occ.    7  a   ---  Virt.   28  a   -0.06913 X
     Occ.    7  a   ---  Virt.   29  a   -0.09541 X
  ----------------------------------------------------------------------------
  Root   8 singlet a              0.539828749 a.u.               14.6895 eV 
  ----------------------------------------------------------------------------
     Transition Moments    X  0.00000   Y -0.00000   Z  0.00000
     Transition Moments   XX -0.94796  XY  0.01011  XZ  0.00000
     Transition Moments   YY  0.94796  YZ  0.00000  ZZ -0.00000
     Dipole Oscillator Strength                         0.00000
 
     Occ.    6  a   ---  Virt.   10  a   -0.68426 X
     Occ.    6  a   ---  Virt.   11  a   -0.12651 X
     Occ.    6  a   ---  Virt.   28  a   -0.06913 X
     Occ.    6  a   ---  Virt.   29  a   -0.09541 X
     Occ.    7  a   ---  Virt.   10  a   -0.12651 X
     Occ.    7  a   ---  Virt.   11  a    0.68426 X
     Occ.    7  a   ---  Virt.   28  a   -0.09541 X
     Occ.    7  a   ---  Virt.   29  a    0.06913 X
  ----------------------------------------------------------------------------
  Root   9 singlet a              0.543309530 a.u.               14.7842 eV 
  ----------------------------------------------------------------------------
     Transition Moments    X  0.00000   Y -0.00000   Z -0.00000
     Transition Moments   XX  0.00000  XY -0.00000  XZ -0.00000
     Transition Moments   YY -0.00000  YZ -0.00000  ZZ  0.00000
     Dipole Oscillator Strength                         0.00000
 
     Occ.    6  a   ---  Virt.   10  a    0.57720 X
     Occ.    6  a   ---  Virt.   11  a    0.39070 X
     Occ.    6  a   ---  Virt.   29  a    0.11448 X
     Occ.    7  a   ---  Virt.   10  a   -0.39070 X
     Occ.    7  a   ---  Virt.   11  a    0.57720 X
     Occ.    7  a   ---  Virt.   28  a   -0.11448 X
  ----------------------------------------------------------------------------
  Root  10 singlet a              0.547291726 a.u.               14.8926 eV 
  ----------------------------------------------------------------------------
     Transition Moments    X  0.00000   Y  0.00000   Z  0.00000
     Transition Moments   XX -0.00000  XY  0.00000  XZ -0.44323
     Transition Moments   YY  0.00000  YZ -0.33079  ZZ  0.00000
     Dipole Oscillator Strength                         0.00000
 
     Occ.    6  a   ---  Virt.    8  a   -0.06405 X
     Occ.    7  a   ---  Virt.    8  a   -0.95215 X
     Occ.    7  a   ---  Virt.   17  a    0.28038 X
     Occ.    7  a   ---  Virt.   30  a   -0.05977 X
 
              Target root =      1
          Target symmetry = none
      Ground state energy =   -108.994932909521
        Excitation energy =      0.379966837965
     Excited state energy =   -108.614966071556
 
 
   10 smallest eigenvalue differences (eV) 
--------------------------------------------------------
  No. Spin  Occ  Vir  Irrep   E(Occ)    E(Vir)   E(Diff)
--------------------------------------------------------
    1    1    7    8 a        -0.628     0.071    19.045
    2    1    6    8 a        -0.628     0.071    19.045
    3    1    5    8 a        -0.637     0.071    19.286
    4    1    7    9 a        -0.628     0.101    19.845
    5    1    6    9 a        -0.628     0.101    19.845
    6    1    7   10 a        -0.628     0.108    20.029
    7    1    7   11 a        -0.628     0.108    20.029
    8    1    6   10 a        -0.628     0.108    20.029
    9    1    6   11 a        -0.628     0.108    20.029
   10    1    5    9 a        -0.637     0.101    20.086
--------------------------------------------------------

  Entering Davidson iterations
  Restricted triplet excited states

  Iter   NTrls   NConv    DeltaV     DeltaE      Time   
  ----  ------  ------  ---------  ---------  --------- 
    1     10       0     0.11E+00   0.10+100        1.3
    2     30       0     0.33E+00   0.88E-01        1.3
    3     50       0     0.28E+00   0.25E+00        1.3
    4     70       0     0.32E-01   0.42E-01        1.4
    5     90       0     0.62E-02   0.46E-03        1.4
    6    110       1     0.24E-02   0.21E-04        1.4
    7    128       3     0.46E-03   0.11E-05        1.4
    8    140      10     0.94E-04   0.23E-07        1.3
  ----  ------  ------  ---------  ---------  --------- 
  Convergence criterion met
 
  Ground state a        -108.994932909521 a.u.
 
  ----------------------------------------------------------------------------
  Root   1 triplet a              0.175695119 a.u.                4.7809 eV 
  ----------------------------------------------------------------------------
     Transition Moments                    Spin forbidden
     Oscillator Strength                   Spin forbidden
 
     Occ.    6  a   ---  Virt.   12  a   -0.19903 X
     Occ.    6  a   ---  Virt.   12  a   -0.07561 Y
     Occ.    6  a   ---  Virt.   13  a    0.31269 X
     Occ.    6  a   ---  Virt.   13  a    0.11879 Y
     Occ.    6  a   ---  Virt.   15  a    0.31993 X
     Occ.    6  a   ---  Virt.   15  a    0.13288 Y
     Occ.    6  a   ---  Virt.   16  a   -0.53845 X
     Occ.    6  a   ---  Virt.   16  a   -0.22363 Y
     Occ.    6  a   ---  Virt.   26  a   -0.12651 X
     Occ.    6  a   ---  Virt.   26  a   -0.06295 Y
     Occ.    6  a   ---  Virt.   27  a    0.20382 X
     Occ.    6  a   ---  Virt.   27  a    0.10141 Y
     Occ.    6  a   ---  Virt.   33  a    0.06693 X
     Occ.    6  a   ---  Virt.   34  a   -0.10460 X
     Occ.    6  a   ---  Virt.   34  a   -0.06242 Y
     Occ.    7  a   ---  Virt.   12  a    0.31269 X
     Occ.    7  a   ---  Virt.   12  a    0.11879 Y
     Occ.    7  a   ---  Virt.   13  a    0.19903 X
     Occ.    7  a   ---  Virt.   13  a    0.07561 Y
     Occ.    7  a   ---  Virt.   15  a   -0.53845 X
     Occ.    7  a   ---  Virt.   15  a   -0.22363 Y
     Occ.    7  a   ---  Virt.   16  a   -0.31993 X
     Occ.    7  a   ---  Virt.   16  a   -0.13288 Y
     Occ.    7  a   ---  Virt.   26  a    0.20382 X
     Occ.    7  a   ---  Virt.   26  a    0.10141 Y
     Occ.    7  a   ---  Virt.   27  a    0.12651 X
     Occ.    7  a   ---  Virt.   27  a    0.06295 Y
     Occ.    7  a   ---  Virt.   33  a   -0.10460 X
     Occ.    7  a   ---  Virt.   33  a   -0.06242 Y
     Occ.    7  a   ---  Virt.   34  a   -0.06693 X
  ----------------------------------------------------------------------------
  Root   2 triplet a              0.300475599 a.u.                8.1764 eV 
  ----------------------------------------------------------------------------
     Transition Moments                    Spin forbidden
     Oscillator Strength                   Spin forbidden
 
     Occ.    4  a   ---  Virt.   41  a    0.05130 X
     Occ.    5  a   ---  Virt.   12  a    0.29820 X
     Occ.    5  a   ---  Virt.   13  a   -0.42341 X
     Occ.    5  a   ---  Virt.   15  a   -0.44316 X
     Occ.    5  a   ---  Virt.   16  a    0.67219 X
     Occ.    5  a   ---  Virt.   16  a    0.05322 Y
     Occ.    5  a   ---  Virt.   26  a    0.14526 X
     Occ.    5  a   ---  Virt.   27  a   -0.21131 X
     Occ.    5  a   ---  Virt.   33  a   -0.06734 X
     Occ.    5  a   ---  Virt.   34  a    0.09513 X
  ----------------------------------------------------------------------------
  Root   3 triplet a              0.300475599 a.u.                8.1764 eV 
  ----------------------------------------------------------------------------
     Transition Moments                    Spin forbidden
     Oscillator Strength                   Spin forbidden
 
     Occ.    4  a   ---  Virt.   40  a   -0.05130 X
     Occ.    5  a   ---  Virt.   12  a   -0.42341 X
     Occ.    5  a   ---  Virt.   13  a   -0.29820 X
     Occ.    5  a   ---  Virt.   15  a    0.67219 X
     Occ.    5  a   ---  Virt.   15  a    0.05322 Y
     Occ.    5  a   ---  Virt.   16  a    0.44316 X
     Occ.    5  a   ---  Virt.   26  a   -0.21131 X
     Occ.    5  a   ---  Virt.   27  a   -0.14526 X
     Occ.    5  a   ---  Virt.   33  a    0.09513 X
     Occ.    5  a   ---  Virt.   34  a    0.06734 X
  ----------------------------------------------------------------------------
  Root   4 triplet a              0.421978901 a.u.               11.4826 eV 
  ----------------------------------------------------------------------------
     Transition Moments                    Spin forbidden
     Oscillator Strength                   Spin forbidden
 
     Occ.    4  a   ---  Virt.   12  a   -0.36032 X
     Occ.    4  a   ---  Virt.   13  a   -0.33964 X
     Occ.    4  a   ---  Virt.   15  a    0.58752 X
     Occ.    4  a   ---  Virt.   15  a    0.06592 Y
     Occ.    4  a   ---  Virt.   16  a    0.52067 X
     Occ.    4  a   ---  Virt.   16  a    0.05842 Y
     Occ.    4  a   ---  Virt.   26  a   -0.18882 X
     Occ.    4  a   ---  Virt.   27  a   -0.17398 X
     Occ.    4  a   ---  Virt.   33  a    0.08543 X
     Occ.    4  a   ---  Virt.   34  a    0.08092 X
     Occ.    5  a   ---  Virt.   10  a    0.10582 X
     Occ.    5  a   ---  Virt.   29  a    0.07595 X
     Occ.    5  a   ---  Virt.   40  a   -0.05822 X
     Occ.    5  a   ---  Virt.   41  a    0.05930 X
     Occ.    7  a   ---  Virt.    9  a    0.13111 X
     Occ.    7  a   ---  Virt.   14  a   -0.11285 X
     Occ.    7  a   ---  Virt.   31  a    0.05122 X
  ----------------------------------------------------------------------------
  Root   5 triplet a              0.421978901 a.u.               11.4826 eV 
  ----------------------------------------------------------------------------
     Transition Moments                    Spin forbidden
     Oscillator Strength                   Spin forbidden
 
     Occ.    4  a   ---  Virt.   12  a    0.33964 X
     Occ.    4  a   ---  Virt.   13  a   -0.36032 X
     Occ.    4  a   ---  Virt.   15  a   -0.52067 X
     Occ.    4  a   ---  Virt.   15  a   -0.05842 Y
     Occ.    4  a   ---  Virt.   16  a    0.58752 X
     Occ.    4  a   ---  Virt.   16  a    0.06592 Y
     Occ.    4  a   ---  Virt.   26  a    0.17398 X
     Occ.    4  a   ---  Virt.   27  a   -0.18882 X
     Occ.    4  a   ---  Virt.   33  a   -0.08092 X
     Occ.    4  a   ---  Virt.   34  a    0.08543 X
     Occ.    5  a   ---  Virt.   11  a   -0.10582 X
     Occ.    5  a   ---  Virt.   28  a    0.07595 X
     Occ.    5  a   ---  Virt.   40  a    0.05930 X
     Occ.    5  a   ---  Virt.   41  a    0.05822 X
     Occ.    6  a   ---  Virt.    9  a    0.13111 X
     Occ.    6  a   ---  Virt.   14  a   -0.11285 X
     Occ.    6  a   ---  Virt.   31  a    0.05122 X
  ----------------------------------------------------------------------------
  Root   6 triplet a              0.490811251 a.u.               13.3557 eV 
  ----------------------------------------------------------------------------
     Transition Moments                    Spin forbidden
     Oscillator Strength                   Spin forbidden
 
     Occ.    4  a   ---  Virt.    8  a   -0.15832 X
     Occ.    4  a   ---  Virt.   17  a    0.15872 X
     Occ.    4  a   ---  Virt.   30  a   -0.07195 X
     Occ.    4  a   ---  Virt.   35  a   -0.05180 X
     Occ.    5  a   ---  Virt.    9  a    0.69369 X
     Occ.    5  a   ---  Virt.   14  a   -0.46152 X
     Occ.    5  a   ---  Virt.   31  a    0.16875 X
     Occ.    5  a   ---  Virt.   32  a   -0.06266 X
     Occ.    6  a   ---  Virt.   10  a    0.17354 X
     Occ.    6  a   ---  Virt.   11  a   -0.25639 X
     Occ.    6  a   ---  Virt.   28  a    0.09847 X
     Occ.    7  a   ---  Virt.   10  a    0.25639 X
     Occ.    7  a   ---  Virt.   11  a    0.17354 X
     Occ.    7  a   ---  Virt.   29  a    0.09847 X
  ----------------------------------------------------------------------------
  Root   7 triplet a              0.504483039 a.u.               13.7277 eV 
  ----------------------------------------------------------------------------
     Transition Moments                    Spin forbidden
     Oscillator Strength                   Spin forbidden
 
     Occ.    4  a   ---  Virt.   12  a    0.12176 X
     Occ.    4  a   ---  Virt.   13  a    0.07756 X
     Occ.    4  a   ---  Virt.   15  a   -0.13182 X
     Occ.    4  a   ---  Virt.   16  a   -0.07838 X
     Occ.    5  a   ---  Virt.   10  a    0.17519 X
     Occ.    5  a   ---  Virt.   11  a    0.11850 X
     Occ.    5  a   ---  Virt.   29  a    0.05177 X
     Occ.    6  a   ---  Virt.   18  a   -0.06075 X
     Occ.    7  a   ---  Virt.    9  a    0.69294 X
     Occ.    7  a   ---  Virt.   14  a   -0.61495 X
     Occ.    7  a   ---  Virt.   19  a    0.06075 X
     Occ.    7  a   ---  Virt.   20  a    0.14131 X
     Occ.    7  a   ---  Virt.   31  a    0.11668 X
     Occ.    7  a   ---  Virt.   32  a   -0.08051 X
  ----------------------------------------------------------------------------
  Root   8 triplet a              0.504483039 a.u.               13.7277 eV 
  ----------------------------------------------------------------------------
     Transition Moments                    Spin forbidden
     Oscillator Strength                   Spin forbidden
 
     Occ.    4  a   ---  Virt.   12  a   -0.07756 X
     Occ.    4  a   ---  Virt.   13  a    0.12176 X
     Occ.    4  a   ---  Virt.   15  a    0.07838 X
     Occ.    4  a   ---  Virt.   16  a   -0.13182 X
     Occ.    5  a   ---  Virt.   10  a    0.11850 X
     Occ.    5  a   ---  Virt.   11  a   -0.17519 X
     Occ.    5  a   ---  Virt.   28  a    0.05177 X
     Occ.    6  a   ---  Virt.    9  a    0.69294 X
     Occ.    6  a   ---  Virt.   14  a   -0.61495 X
     Occ.    6  a   ---  Virt.   19  a   -0.06075 X
     Occ.    6  a   ---  Virt.   20  a    0.14131 X
     Occ.    6  a   ---  Virt.   31  a    0.11668 X
     Occ.    6  a   ---  Virt.   32  a   -0.08051 X
     Occ.    7  a   ---  Virt.   18  a   -0.06075 X
  ----------------------------------------------------------------------------
  Root   9 triplet a              0.524809544 a.u.               14.2808 eV 
  ----------------------------------------------------------------------------
     Transition Moments                    Spin forbidden
     Oscillator Strength                   Spin forbidden
 
     Occ.    4  a   ---  Virt.    9  a   -0.32496 X
     Occ.    4  a   ---  Virt.   14  a    0.11143 X
     Occ.    4  a   ---  Virt.   31  a   -0.12152 X
     Occ.    5  a   ---  Virt.    8  a    0.81623 X
     Occ.    5  a   ---  Virt.   17  a   -0.39270 X
     Occ.    5  a   ---  Virt.   30  a    0.12888 X
     Occ.    6  a   ---  Virt.   12  a    0.05457 X
     Occ.    6  a   ---  Virt.   13  a   -0.08573 X
     Occ.    7  a   ---  Virt.   12  a   -0.08573 X
     Occ.    7  a   ---  Virt.   13  a   -0.05457 X
  ----------------------------------------------------------------------------
  Root  10 triplet a              0.533823950 a.u.               14.5261 eV 
  ----------------------------------------------------------------------------
     Transition Moments                    Spin forbidden
     Oscillator Strength                   Spin forbidden
 
     Occ.    5  a   ---  Virt.   18  a    0.05062 X
     Occ.    6  a   ---  Virt.   10  a   -0.67929 X
     Occ.    6  a   ---  Virt.   11  a   -0.12743 X
     Occ.    6  a   ---  Virt.   28  a   -0.08137 X
     Occ.    6  a   ---  Virt.   29  a   -0.11292 X
     Occ.    7  a   ---  Virt.   10  a   -0.12743 X
     Occ.    7  a   ---  Virt.   11  a    0.67929 X
     Occ.    7  a   ---  Virt.   28  a   -0.11292 X
     Occ.    7  a   ---  Virt.   29  a    0.08137 X
 
              Target root =      1
          Target symmetry = none
      Ground state energy =   -108.994932909521
        Excitation energy =      0.175695118955
     Excited state energy =   -108.819237790566
 

 Task  times  cpu:       25.9s     wall:       26.6s
 
 
                                NWChem Input Module
                                -------------------
 
 
 Summary of allocated global arrays
-----------------------------------
  No active global arrays



                         GA Statistics for process    0
                         ------------------------------

       create   destroy   get      put      acc     scatter   gather  read&inc
calls: 2120     2120     4.56e+05 1.30e+05 1.42e+05  828        0      996     
number of processes/call 1.43e+00 1.65e+00 1.60e+00 0.00e+00 0.00e+00
bytes total:             2.03e+09 6.69e+07 1.30e+09 7.36e+03 0.00e+00 7.97e+03
bytes remote:            1.80e+09 1.92e+07 1.22e+09 0.00e+00 0.00e+00 0.00e+00
Max memory consumed for GA by this process: 6710240 bytes
 
MA_summarize_allocated_blocks: starting scan ...
MA_summarize_allocated_blocks: scan completed: 0 heap blocks, 0 stack blocks
MA usage statistics:

	allocation statistics:
					      heap	     stack
					      ----	     -----
	current number of blocks	         0	         0
	maximum number of blocks	        20	        35
	current total bytes		         0	         0
	maximum total bytes		     80136	  43573224
	maximum total K-bytes		        81	     43574
	maximum total M-bytes		         1	        44
 
 
                                     CITATION
                                     --------
                Please cite the following reference when publishing
                           results obtained with NWChem:
 
                 M. Valiev, E.J. Bylaska, N. Govind, K. Kowalski,
              T.P. Straatsma, H.J.J. van Dam, D. Wang, J. Nieplocha,
                        E. Apra, T.L. Windus, W.A. de Jong
                 "NWChem: a comprehensive and scalable open-source
                  solution for large scale molecular simulations"
                      Comput. Phys. Commun. 181, 1477 (2010)
                           doi:10.1016/j.cpc.2010.04.018
 
                                      AUTHORS
                                      -------
          E. Apra, E. J. Bylaska, W. A. de Jong, N. Govind, K. Kowalski,
       T. P. Straatsma, M. Valiev, H. J. J. van Dam, D. Wang, T. L. Windus,
        J. Hammond, J. Autschbach, K. Bhaskaran-Nair, J. Brabec, K. Lopata,
       S. A. Fischer, S. Krishnamoorthy, W. Ma, M. Klemm, O. Villa, Y. Chen,
    V. Anisimov, F. Aquino, S. Hirata, M. T. Hackler, T. Risthaus, M. Malagoli,
       A. Marenich, A. Otero-de-la-Roza, J. Mullin, P. Nichols, R. Peverati,
     J. Pittner, Y. Zhao, P.-D. Fan, A. Fonari, M. Williamson, R. J. Harrison,
       J. R. Rehr, M. Dupuis, D. Silverstein, D. M. A. Smith, J. Nieplocha,
        V. Tipparaju, M. Krishnan, B. E. Van Kuiken, A. Vazquez-Mayagoitia,
        L. Jensen, M. Swart, Q. Wu, T. Van Voorhis, A. A. Auer, M. Nooijen,
      L. D. Crosby, E. Brown, G. Cisneros, G. I. Fann, H. Fruchtl, J. Garza,
        K. Hirao, R. A. Kendall, J. A. Nichols, K. Tsemekhman, K. Wolinski,
     J. Anchell, D. E. Bernholdt, P. Borowski, T. Clark, D. Clerc, H. Dachsel,
   M. J. O. Deegan, K. Dyall, D. Elwood, E. Glendening, M. Gutowski, A. C. Hess,
         J. Jaffe, B. G. Johnson, J. Ju, R. Kobayashi, R. Kutteh, Z. Lin,
   R. Littlefield, X. Long, B. Meng, T. Nakajima, S. Niu, L. Pollack, M. Rosing,
   K. Glaesemann, G. Sandrone, M. Stave, H. Taylor, G. Thomas, J. H. van Lenthe,
                               A. T. Wong, Z. Zhang.

 Total times  cpu:       25.9s     wall:       26.7s
